LAMMPS data file via pdbToData.py

1854 atoms
23 atom types
1197 bonds
1 bond types

-250.0 250.0 xlo xhi
-250.0 250.0 ylo yhi
-250.0 250.0 zlo zhi

Masses

1 71.08
2 103.1
3 115.1
4 129.1
5 147.2
6 57.05
7 137.1
8 113.2
9 128.2
10 113.2
11 131.2
12 114.1
13 97.12
14 128.1
15 156.2
16 87.08
17 101.1
18 99.07
19 186.2
20 163.2
21 165.03
22 179.05
23 241.15

Atoms

	   1	1	11	0.0	78.58	27.69	-43.15
	   2	1	4	-1.0	80.05	29.43	-40.12
	   3	1	18	0.0	81.7	32.79	-39.08
	   4	1	12	0.0	85.54	32.89	-39.33
	   5	1	6	0.0	88.48	35.11	-40.44
	   6	1	18	0.0	91.56	36.1	-42.4
	   7	1	16	0.0	92.86	37.1	-38.95
	   8	1	14	0.0	91.1	38.65	-35.97
	   9	1	16	0.0	91.48	41.92	-37.96
	  10	1	4	-1.0	89.85	43.78	-40.84
	  11	1	1	0.0	89.81	47.49	-40.08
	  12	1	1	0.0	89.08	51.06	-40.95
	  13	1	13	0.0	88.97	51.84	-44.7
	  14	1	20	0.0	92.44	50.46	-45.62
	  15	1	18	0.0	95.65	52.47	-46.49
	  16	1	17	0.0	98.34	53.57	-48.87
	  17	1	9	1.0	101.55	53.83	-46.92
	  18	1	16	0.0	104.52	52.79	-49.0
	  19	1	16	0.0	107.11	54.7	-46.87
	  20	1	18	0.0	110.48	54.33	-45.14
	  21	1	9	1.0	108.69	54.59	-41.72
	  22	1	5	0.0	106.92	53.15	-38.67
	  23	1	15	1.0	103.18	53.22	-39.56
	  24	1	3	-1.0	101.87	49.67	-39.58
	  25	1	12	0.0	99.13	48.96	-42.09
	  26	1	5	0.0	100.17	46.72	-44.83
	  27	1	19	0.0	101.89	47.11	-48.19
	  28	1	6	0.0	100.02	47.85	-51.51
	  29	1	16	0.0	100.6	48.56	-55.18
	  30	1	4	-1.0	101.29	52.2	-54.21
	  31	1	3	-1.0	103.95	52.32	-56.97
	  32	1	1	0.0	101.46	53.49	-59.54
	  33	1	6	0.0	97.75	52.73	-60.08
	  34	1	11	0.0	96.21	49.83	-58.12
	  35	1	3	-1.0	94.87	46.32	-57.61
	  36	1	1	0.0	93.51	43.67	-59.99
	  37	1	10	0.0	90.02	43.84	-58.47
	  38	1	11	0.0	88.24	43.12	-61.73
	  39	1	16	0.0	88.22	39.64	-60.18
	  40	1	15	1.0	85.32	40.81	-58.0
	  41	1	17	0.0	83.16	42.05	-60.89
	  42	1	9	1.0	84.38	39.1	-62.99
	  43	1	16	0.0	83.42	36.69	-60.18
	  44	1	16	0.0	79.94	38.22	-60.21
	  45	1	10	0.0	79.71	36.71	-63.67
	  46	1	16	0.0	80.73	33.31	-62.32
	  47	1	18	0.0	77.71	33.53	-59.98
	  48	1	10	0.0	75.18	34.65	-62.59
	  49	1	4	-1.0	75.51	31.35	-64.54
	  50	1	16	0.0	76.27	28.91	-61.7
	  51	1	8	0.0	72.83	29.66	-60.2
	  52	1	3	-1.0	70.89	30.22	-63.44
	  53	1	4	-1.0	72.1	26.67	-64.04
	  54	1	5	0.0	70.36	25.62	-60.83
	  55	1	20	0.0	67.04	27.24	-61.76
	  56	1	1	0.0	67.22	25.59	-65.19
	  57	1	9	1.0	68.34	22.4	-63.45
	  58	1	15	1.0	65.38	22.66	-61.09
	  59	1	1	0.0	62.8	23.23	-63.83
	  60	1	16	0.0	64.43	20.46	-65.87
	  61	1	8	0.0	64.21	18.19	-62.81
	  62	1	4	-1.0	60.75	19.12	-61.46
	  63	1	15	1.0	59.09	17.65	-64.55
	  64	1	4	-1.0	61.11	14.46	-65.14
	  65	1	20	0.0	61.48	13.73	-61.42
	  66	1	1	0.0	58.01	15.07	-60.59
	  67	1	16	0.0	55.71	15.18	-63.62
	  68	1	9	1.0	57.0	12.25	-65.63
	  69	1	10	0.0	55.09	10.26	-62.97
	  70	1	14	0.0	51.49	11.54	-62.94
	  71	1	4	-1.0	51.64	12.4	-66.66
	  72	1	10	0.0	52.74	8.81	-67.27
	  73	1	1	0.0	51.24	6.77	-64.43
	  74	1	1	0.0	47.82	8.41	-64.33
	  75	1	16	0.0	46.87	8.32	-68.04
	  76	1	16	0.0	49.08	5.5	-69.33
	  77	1	1	0.0	48.49	2.92	-66.6
	  78	1	3	-1.0	44.78	3.93	-66.73
	  79	1	8	0.0	42.26	4.32	-69.61
	  80	1	13	0.0	41.37	0.61	-70.06
	  81	1	4	-1.0	38.23	-0.7	-71.7
	  82	1	18	0.0	37.29	-2.59	-68.52
	  83	1	6	0.0	33.53	-2.38	-68.63
	  84	1	16	0.0	31.94	-0.66	-65.63
	  85	1	17	0.0	29.42	-3.58	-65.86
	  86	1	10	0.0	26.87	-1.34	-64.13
	  87	1	12	0.0	23.71	-1.76	-66.21
	  88	1	12	0.0	22.51	1.49	-64.59
	  89	1	8	0.0	22.73	4.15	-67.3
	  90	1	10	0.0	23.25	6.67	-64.47
	  91	1	16	0.0	25.31	5.15	-61.65
	  92	1	11	0.0	27.63	4.33	-64.55
	  93	1	15	1.0	27.85	7.95	-65.71
	  94	1	17	0.0	29.48	8.71	-62.36
	  95	1	4	-1.0	32.03	5.88	-62.45
	  96	1	17	0.0	33.28	6.81	-65.93
	  97	1	6	0.0	32.99	10.43	-64.8
	  98	1	16	0.0	35.46	9.54	-62.07
	  99	1	11	0.0	37.56	7.64	-64.62
	 100	1	1	0.0	37.35	10.44	-67.18
	 101	1	9	1.0	38.23	13.22	-64.73
	 102	1	1	0.0	41.18	11.13	-63.58
	 103	1	7	0.5	42.32	11.43	-67.2
	 104	1	4	-1.0	41.29	15.06	-67.6
	 105	1	4	-1.0	43.39	15.72	-64.54
	 106	1	18	0.0	46.5	14.2	-66.13
	 107	1	16	0.0	45.99	16.19	-69.35
	 108	1	14	0.0	46.86	19.17	-67.11
	 109	1	14	0.0	50.08	17.89	-65.53
	 110	1	8	0.0	51.27	17.15	-69.05
	 111	1	12	0.0	50.61	20.82	-69.82
	 112	1	17	0.0	53.0	21.91	-67.05
	 113	1	4	-1.0	55.58	19.32	-68.17
	 114	1	10	0.0	55.32	20.87	-71.65
	 115	1	15	1.0	54.76	24.55	-70.78
	 116	1	12	0.0	57.41	24.63	-68.03
	 117	1	9	1.0	60.08	23.07	-70.24
	 118	1	8	0.0	59.1	25.74	-72.72
	 119	1	15	1.0	60.1	28.31	-70.05
	 120	1	4	-1.0	63.45	26.84	-68.99
	 121	1	20	0.0	64.29	27.63	-72.64
	 122	1	8	0.0	64.04	31.27	-71.48
	 123	1	3	-1.0	66.84	30.72	-68.98
	 124	1	14	0.0	69.12	30.12	-71.97
	 125	1	17	0.0	67.88	33.36	-73.51
	 126	1	4	-1.0	69.49	34.8	-70.36
	 127	1	14	0.0	72.15	32.23	-69.48
	 128	1	14	0.0	73.61	32.88	-72.94
	 129	1	9	1.0	72.08	36.28	-73.88
	 130	1	18	0.0	73.9	37.81	-70.88
	 131	1	18	0.0	77.09	36.61	-72.6
	 132	1	1	0.0	76.15	38.98	-75.44
	 133	1	1	0.0	76.08	41.77	-72.8
	 134	1	12	0.0	79.22	40.74	-70.89
	 135	1	1	0.0	81.73	39.47	-73.47
	 136	1	8	0.0	81.53	42.64	-75.63
	 137	1	4	-1.0	82.42	45.36	-73.11
	 138	1	4	-1.0	84.72	42.95	-71.23
	 139	1	10	0.0	87.42	42.06	-73.75
	 140	1	20	0.0	87.17	45.62	-75.1
	 141	1	14	0.0	88.01	46.73	-71.54
	 142	1	9	1.0	90.75	44.12	-71.0
	 143	1	9	1.0	93.07	45.45	-73.72
	 144	1	17	0.0	93.36	48.91	-72.14
	 145	1	1	0.0	93.54	47.32	-68.68
	 146	1	10	0.0	96.94	45.77	-69.55
	 147	1	4	-1.0	98.37	48.78	-71.43
	 148	1	8	0.0	98.39	50.45	-68.01
	 149	1	3	-1.0	100.03	47.41	-66.49
	 150	1	10	0.0	103.24	47.49	-68.53
	 151	1	16	0.0	103.33	51.28	-68.88
	 152	1	9	1.0	103.45	51.51	-65.07
	 153	1	9	1.0	106.05	48.75	-65.2
	 154	1	9	1.0	107.88	50.9	-67.75
	 155	1	3	-1.0	107.56	53.81	-65.32
	 156	1	1	0.0	108.89	51.81	-62.35
	 157	1	20	0.0	111.55	50.56	-64.75
	 158	1	4	-1.0	112.32	54.23	-65.53
	 159	1	20	0.0	112.95	54.98	-61.85
	 160	1	16	0.0	116.56	55.68	-62.84
	 161	1	2	0.0	115.97	59.41	-62.46
	 162	1	12	0.0	116.4	58.54	-58.78
	 163	1	9	1.0	119.36	56.18	-59.29
	 164	1	10	0.0	121.44	58.93	-60.95
	 165	1	12	0.0	120.2	61.58	-58.5
	 166	1	16	0.0	121.52	59.37	-55.7
	 167	1	20	0.0	124.95	59.2	-57.38
	 168	1	11	0.0	124.7	62.89	-58.23
	 169	1	15	1.0	124.38	64.02	-54.59
	 170	1	14	0.0	127.12	61.68	-53.45
	 171	1	17	0.0	129.47	63.61	-55.73
	 172	1	9	1.0	128.34	66.91	-54.2
	 173	1	9	1.0	128.6	65.38	-50.71
	 174	1	11	0.0	132.19	64.31	-51.21
	 175	1	17	0.0	133.21	67.65	-52.75
	 176	1	6	0.0	133.3	69.21	-49.29
	 177	1	15	1.0	136.75	67.57	-49.04
	 178	1	4	-1.0	137.85	69.04	-52.41
	 179	1	10	0.0	139.76	66.3	-54.18
	 180	1	3	-1.0	140.33	68.91	-56.92
	 181	1	9	1.0	138.36	67.93	-60.02
	 182	1	20	0.0	135.32	65.89	-58.99
	 183	1	12	0.0	133.49	68.89	-60.48
	 184	1	10	0.0	133.98	67.45	-63.97
	 185	1	9	1.0	132.24	64.27	-62.78
	 186	1	8	0.0	129.52	66.54	-61.36
	 187	1	15	1.0	128.88	68.01	-64.8
	 188	1	14	0.0	128.39	64.5	-66.19
	 189	1	1	0.0	125.8	63.5	-63.6
	 190	1	1	0.0	124.27	66.96	-64.07
	 191	1	10	0.0	123.81	66.42	-67.8
	 192	1	1	0.0	122.83	62.8	-67.08
	 193	1	18	0.0	120.13	63.8	-64.58
	 194	1	9	1.0	118.7	66.31	-67.05
	 195	1	9	1.0	118.29	63.72	-69.81
	 196	1	11	0.0	116.98	60.97	-67.53
	 197	1	3	-1.0	114.25	63.02	-65.88
	 198	1	1	0.0	113.24	64.09	-69.39
	 199	1	4	-1.0	112.54	60.37	-69.7
	 200	1	20	0.0	110.72	60.24	-66.35
	 201	1	15	1.0	108.54	63.24	-67.24
	 202	1	4	-1.0	107.79	61.69	-70.61
	 203	1	17	0.0	106.85	58.27	-69.22
	 204	1	12	0.0	104.84	59.93	-66.45
	 205	1	4	-1.0	102.66	62.19	-68.59
	 206	1	10	0.0	101.95	59.25	-70.91
	 207	1	10	0.0	101.12	56.87	-68.06
	 208	1	10	0.0	99.01	59.69	-66.61
	 209	1	17	0.0	96.54	59.83	-69.49
	 210	1	18	0.0	96.77	56.05	-69.96
	 211	1	17	0.0	95.15	55.75	-66.53
	 212	1	15	1.0	93.24	59.06	-66.67
	 213	1	4	-1.0	91.57	57.44	-69.71
	 214	1	19	0.0	91.07	54.34	-67.55
	 215	1	8	0.0	89.39	55.99	-64.55
	 216	1	3	-1.0	86.96	57.24	-67.19
	 217	1	15	1.0	86.35	53.98	-69.03
	 218	1	19	0.0	86.31	51.78	-65.89
	 219	1	17	0.0	83.31	53.73	-64.57
	 220	1	4	-1.0	81.57	52.49	-67.74
	 221	1	18	0.0	81.98	48.81	-66.79
	 222	1	2	0.0	80.99	49.61	-63.2
	 223	1	3	-1.0	77.77	51.17	-64.52
	 224	1	1	0.0	77.12	48.55	-67.21
	 225	1	5	0.0	77.54	45.63	-64.78
	 226	1	14	0.0	75.2	47.31	-62.3
	 227	1	7	0.5	72.63	47.45	-65.14
	 228	1	8	0.0	72.56	43.75	-66.14
	 229	1	4	-1.0	73.15	42.59	-62.58
	 230	1	4	-1.0	70.04	44.57	-61.65
	 231	1	20	0.0	68.03	43.41	-64.66
	 232	1	15	1.0	69.05	39.8	-63.99
	 233	1	10	0.0	67.09	40.18	-60.75
	 234	1	4	-1.0	64.03	41.44	-62.64
	 235	1	5	0.0	64.48	38.44	-64.92
	 236	1	10	0.0	64.73	36.11	-61.92
	 237	1	9	1.0	61.73	37.67	-60.17
	 238	1	17	0.0	59.56	37.97	-63.27
	 239	1	12	0.0	60.46	34.48	-64.5
	 240	1	11	0.0	59.76	33.01	-61.05
	 241	1	19	0.0	56.48	34.9	-60.65
	 242	1	1	0.0	55.55	33.13	-63.91
	 243	1	20	0.0	56.52	29.81	-62.31
	 244	1	1	0.0	53.72	29.58	-59.77
	 245	1	12	0.0	51.3	31.0	-62.33
	 246	1	8	0.0	52.25	27.95	-64.4
	 247	1	8	0.0	51.4	25.54	-61.59
	 248	1	16	0.0	48.5	27.56	-60.17
	 249	1	17	0.0	46.89	26.92	-63.55
	 250	1	1	0.0	47.51	23.19	-63.0
	 251	1	2	0.0	45.95	23.39	-59.55
	 252	1	18	0.0	42.86	25.21	-60.8
	 253	1	9	1.0	42.6	22.81	-63.77
	 254	1	3	-1.0	42.22	19.5	-61.93
	 255	1	3	-1.0	40.34	21.17	-59.08
	 256	1	4	-1.0	37.85	22.45	-61.64
	 257	1	16	0.0	37.82	18.85	-62.93
	 258	1	2	0.0	37.12	17.6	-59.4
	 259	1	4	-1.0	34.1	19.92	-59.35
	 260	1	9	1.0	33.0	17.87	-62.36
	 261	1	8	0.0	33.08	14.6	-60.39
	 262	1	15	1.0	30.62	16.18	-57.93
	 263	1	10	0.0	28.4	17.47	-60.75
	 264	1	17	0.0	28.19	14.02	-62.36
	 265	1	10	0.0	27.55	12.75	-58.82
	 266	1	4	-1.0	24.52	14.99	-58.18
	 267	1	12	0.0	22.45	14.05	-61.27
	 268	1	17	0.0	22.07	10.49	-59.97
	 269	1	12	0.0	18.47	9.61	-59.17
	 270	1	8	0.0	18.26	6.07	-57.9
	 271	1	3	-1.0	14.58	5.08	-58.09
	 272	1	4	-1.0	14.68	5.45	-61.9
	 273	1	3	-1.0	18.04	3.68	-61.95
	 274	1	8	0.0	17.11	0.22	-60.73
	 275	1	17	0.0	14.01	0.7	-62.9
	 276	1	14	0.0	16.26	1.11	-65.94
	 277	1	11	0.0	18.35	-1.77	-64.57
	 278	1	8	0.0	15.32	-4.06	-64.11
	 279	1	14	0.0	14.42	-3.91	-67.79
	 280	1	12	0.0	17.89	-5.31	-68.65
	 281	1	4	-1.0	18.0	-8.14	-66.09
	 282	1	6	0.0	14.24	-8.65	-66.1
	 283	1	17	0.0	13.27	-12.32	-66.07
	 284	1	6	0.0	9.46	-12.38	-65.9
	 285	1	17	0.0	6.48	-10.18	-65.02
	 286	1	17	0.0	3.47	-12.55	-64.77
	 287	1	8	0.0	3.03	-14.65	-61.65
	 288	1	13	0.0	3.86	-18.41	-61.78
	 289	1	13	0.0	0.28	-19.67	-62.29
	 290	1	10	0.0	-0.94	-22.17	-59.72
	 291	1	13	0.0	-1.4	-25.95	-60.21
	 292	1	4	-1.0	-4.98	-26.86	-61.13
	 293	1	5	0.0	-6.41	-30.38	-60.96
	 294	1	12	0.0	-6.77	-31.85	-64.45
	 295	1	3	-1.0	-9.93	-33.91	-64.76
	 296	1	20	0.0	-10.98	-37.08	-66.6
	 297	1	5	0.0	-13.42	-35.56	-69.14
	 298	1	9	1.0	-10.67	-33.45	-70.77
	 299	1	4	-1.0	-11.04	-35.52	-73.97
	 300	1	12	0.0	-14.08	-37.78	-73.53
	 301	1	6	0.0	-14.24	-41.1	-75.44
	 302	1	10	0.0	-12.29	-42.44	-78.45
	 303	1	12	0.0	-10.26	-39.23	-78.7
	 304	1	20	0.0	-9.08	-36.25	-80.75
	 305	1	3	-1.0	-5.79	-36.33	-82.68
	 306	1	8	0.0	-3.94	-37.04	-85.81
	 307	1	3	-1.0	-2.98	-40.69	-86.19
	 308	1	14	0.0	-5.08	-42.47	-83.57
	 309	1	10	0.0	-5.05	-43.16	-79.79
	 310	1	8	0.0	-1.28	-44.12	-79.35
	 311	1	16	0.0	1.89	-45.42	-80.96
	 312	1	9	1.0	3.79	-42.13	-81.83
	 313	1	1	0.0	7.12	-43.59	-80.39
	 314	1	13	0.0	10.65	-43.49	-81.84
	 315	1	16	0.0	12.03	-40.31	-80.19
	 316	1	20	0.0	10.01	-37.62	-78.3
	 317	1	13	0.0	8.42	-34.34	-77.34
	 318	1	20	0.0	5.68	-31.64	-77.01
	 319	1	16	0.0	6.03	-29.05	-79.7
	 320	1	16	0.0	8.39	-26.08	-80.01
	 321	1	16	0.0	6.61	-22.8	-79.91
	 322	1	15	1.0	4.75	-20.21	-81.88
	 323	1	13	0.0	2.85	-17.27	-80.48
	 324	1	16	0.0	0.6	-14.24	-81.18
	 325	1	1	0.0	0.56	-14.76	-84.91
	 326	1	16	0.0	-0.25	-12.11	-87.59
	 327	1	1	0.0	-0.88	-8.71	-85.95
	 328	1	16	0.0	-2.62	-6.01	-87.88
	 329	1	10	0.0	-6.13	-7.12	-87.27
	 330	1	1	0.0	-8.5	-4.21	-87.95
	 331	1	16	0.0	-5.92	-1.45	-88.73
	 332	1	16	0.0	-3.53	-1.06	-85.79
	 333	1	13	0.0	-0.56	0.89	-84.43
	 334	1	17	0.0	1.11	3.41	-82.1
	 335	1	15	1.0	-1.35	3.91	-79.25
	 336	1	16	0.0	-1.84	7.19	-77.35
	 337	1	1	0.0	-3.94	9.65	-75.43
	 338	1	5	0.0	-7.22	10.38	-73.55
	 339	1	15	1.0	-10.94	10.46	-74.0
	 340	1	13	0.0	-13.04	10.55	-77.14
	 341	1	9	1.0	-14.79	10.73	-80.46
	 342	1	17	0.0	-18.1	9.1	-79.67
	 343	1	16	0.0	-19.23	10.28	-76.21
	 344	1	4	-1.0	-18.38	10.55	-72.47
	 345	1	17	0.0	-15.53	11.27	-70.01
	 346	1	18	0.0	-14.73	14.81	-68.66
	 347	1	16	0.0	-13.47	15.79	-65.15
	 348	1	16	0.0	-14.89	18.31	-62.74
	 349	1	4	-1.0	-15.65	21.3	-65.13
	 350	1	18	0.0	-19.05	22.74	-64.23
	 351	1	18	0.0	-21.44	21.08	-66.63
	 352	1	16	0.0	-24.01	23.18	-68.48
	 353	1	16	0.0	-25.55	25.22	-65.68
	 354	1	13	0.0	-26.42	22.24	-63.42
	 355	1	13	0.0	-24.13	22.56	-60.43
	 356	1	17	0.0	-21.61	24.12	-58.04
	 357	1	16	0.0	-18.04	25.26	-58.75
	 358	1	13	0.0	-14.98	27.18	-60.12
	 359	1	10	0.0	-14.6	29.06	-56.87
	 360	1	7	0.5	-15.55	28.26	-53.25
	 361	1	16	0.0	-17.09	26.46	-50.28
	 362	1	13	0.0	-19.39	24.0	-48.43
	 363	1	18	0.0	-17.28	21.83	-46.1
	 364	1	9	1.0	-13.67	21.13	-45.1
	 365	1	13	0.0	-12.05	17.79	-45.98
	 366	1	18	0.0	-14.13	15.34	-48.15
	 367	1	16	0.0	-15.52	14.73	-51.72
	 368	1	12	0.0	-17.77	11.72	-51.3
	 369	1	4	-1.0	-19.1	8.96	-48.97
	 370	1	14	0.0	-22.6	7.32	-49.43
	 371	1	18	0.0	-24.59	10.41	-50.52
	 372	1	4	-1.0	-25.69	13.38	-52.81
	 373	1	14	0.0	-22.83	15.83	-53.37
	 374	1	18	0.0	-21.81	15.65	-49.73
	 375	1	17	0.0	-24.0	17.27	-47.0
	 376	1	4	-1.0	-26.4	15.66	-44.51
	 377	1	18	0.0	-24.41	13.15	-42.56
	 378	1	4	-1.0	-25.23	9.42	-43.11
	 379	1	10	0.0	-28.38	7.78	-44.49
	 380	1	16	0.0	-28.92	5.56	-41.38
	 381	1	8	0.0	-29.17	5.76	-37.53
	 382	1	13	0.0	-29.6	1.98	-37.5
	 383	1	18	0.0	-28.35	-1.6	-37.77
	 384	1	13	0.0	-30.05	-4.9	-38.8
	 385	1	16	0.0	-28.71	-6.95	-35.81
	 386	1	8	0.0	-28.19	-4.48	-32.97
	 387	1	14	0.0	-31.57	-2.96	-32.36
	 388	1	4	-1.0	-33.49	-3.6	-29.12
	 389	1	1	0.0	-36.59	-5.74	-28.36
	 390	1	4	-1.0	-36.77	-6.3	-24.57
	 391	1	16	0.0	-39.73	-7.25	-22.33
	 392	1	14	0.0	-43.09	-7.73	-20.51
	 393	1	9	1.0	-44.35	-11.1	-21.86
	 394	1	13	0.0	-44.82	-13.46	-24.91
	 395	1	18	0.0	-41.42	-15.18	-25.4
	 396	1	10	0.0	-37.62	-15.05	-25.56
	 397	1	17	0.0	-35.7	-12.92	-28.02
	 398	1	6	0.0	-38.66	-11.0	-29.39
	 399	1	16	0.0	-41.4	-9.46	-31.48
	 400	1	16	0.0	-44.27	-8.08	-29.4
	 401	1	11	0.0	-47.35	-10.32	-29.19
	 402	1	15	1.0	-50.7	-11.53	-30.56
	 403	1	15	1.0	-54.12	-10.02	-31.25
	 404	1	13	0.0	-56.64	-10.59	-28.42
	 405	1	16	0.0	-60.07	-12.31	-28.13
	 406	1	18	0.0	-62.51	-10.31	-30.31
	 407	1	17	0.0	-61.11	-10.32	-33.84
	 408	1	16	0.0	-61.15	-10.54	-37.65
	 409	1	13	0.0	-57.97	-10.9	-39.79
	 410	1	17	0.0	-56.86	-11.51	-43.34
	 411	1	5	0.0	-58.52	-9.95	-46.35
	 412	1	4	-1.0	-61.4	-11.83	-47.91
	 413	1	18	0.0	-64.88	-11.47	-46.58
	 414	1	1	0.0	-66.33	-13.53	-49.45
	 415	1	1	0.0	-66.28	-16.29	-52.07
	 416	1	15	1.0	-66.58	-16.41	-55.81
	 417	1	13	0.0	-63.98	-15.11	-58.19
	 418	1	10	0.0	-64.96	-13.11	-61.34
	 419	1	17	0.0	-64.82	-10.94	-64.37
	 420	1	16	0.0	-62.89	-9.88	-67.54
	 421	1	11	0.0	-60.86	-6.64	-67.62
	 422	1	3	-1.0	-62.07	-4.93	-64.46
	 423	1	18	0.0	-61.79	-6.95	-61.28
	 424	1	15	1.0	-58.93	-9.22	-60.37
	 425	1	16	0.0	-57.25	-10.97	-63.39
	 426	1	16	0.0	-55.72	-8.02	-65.37
	 427	1	7	0.5	-55.24	-4.74	-63.48
	 428	1	12	0.0	-57.66	-2.96	-61.12
	 429	1	1	0.0	-58.49	-3.69	-57.55
	 430	1	4	-1.0	-59.2	-4.57	-53.91
	 431	1	17	0.0	-55.79	-6.25	-53.88
	 432	1	4	-1.0	-56.55	-9.79	-52.42
	 433	1	18	0.0	-57.29	-13.41	-53.35
	 434	1	14	0.0	-59.38	-16.59	-53.03
	 435	1	1	0.0	-58.26	-18.29	-49.81
	 436	1	8	0.0	-60.36	-19.78	-46.97
	 437	1	13	0.0	-59.98	-23.6	-46.99
	 438	1	1	0.0	-60.39	-24.38	-50.76
	 439	1	1	0.0	-61.65	-22.38	-53.73
	 440	1	17	0.0	-61.31	-20.65	-57.02
	 441	1	3	-1.0	-63.52	-23.07	-58.96
	 442	1	8	0.0	-64.49	-26.27	-60.73
	 443	1	16	0.0	-65.15	-27.77	-57.32
	 444	1	13	0.0	-67.86	-25.3	-56.42
	 445	1	4	-1.0	-66.61	-23.9	-53.04
	 446	1	18	0.0	-67.09	-24.6	-49.32
	 447	1	9	1.0	-68.66	-27.09	-46.84
	 448	1	4	-1.0	-68.1	-24.98	-43.75
	 449	1	6	0.0	-70.25	-24.77	-40.63
	 450	1	9	1.0	-72.31	-22.87	-38.04
	 451	1	12	0.0	-71.63	-25.42	-35.34
	 452	1	16	0.0	-69.92	-28.24	-33.52
	 453	1	4	-1.0	-68.46	-30.25	-36.34
	 454	1	12	0.0	-71.28	-31.97	-38.26
	 455	1	1	0.0	-72.25	-31.79	-41.95
	 456	1	8	0.0	-74.84	-28.94	-41.93
	 457	1	17	0.0	-78.64	-29.06	-42.56
	 458	1	9	1.0	-80.91	-25.96	-42.91
	 459	1	3	-1.0	-82.4	-26.37	-46.39
	 460	1	12	0.0	-84.0	-24.93	-49.51
	 461	1	3	-1.0	-84.42	-21.71	-51.43
	 462	1	3	-1.0	-85.2	-21.11	-55.11
	 463	1	8	0.0	-87.76	-21.91	-57.8
	 464	1	8	0.0	-91.07	-22.4	-59.65
	 465	1	10	0.0	-92.05	-19.39	-61.66
	 466	1	16	0.0	-90.77	-17.46	-64.69
	 467	1	16	0.0	-90.69	-13.67	-63.98
	 468	1	14	0.0	-90.61	-14.3	-60.24
	 469	1	10	0.0	-89.61	-11.6	-57.65
	 470	1	14	0.0	-88.9	-8.34	-59.46
	 471	1	13	0.0	-90.49	-8.0	-62.94
	 472	1	17	0.0	-94.18	-8.18	-62.2
	 473	1	1	0.0	-94.37	-6.29	-58.94
	 474	1	17	0.0	-96.73	-4.87	-56.41
	 475	1	6	0.0	-93.28	-3.87	-55.04
	 476	1	16	0.0	-89.63	-4.66	-54.66
	 477	1	15	1.0	-90.82	-6.52	-51.45
	 478	1	16	0.0	-88.7	-8.38	-48.88
	 479	1	16	0.0	-86.72	-11.63	-48.43
	 480	1	15	1.0	-86.44	-13.16	-44.96
	 481	1	10	0.0	-88.63	-16.1	-44.04
	 482	1	16	0.0	-89.63	-19.42	-42.43
	 483	1	5	0.0	-88.18	-22.29	-40.4
	 484	1	16	0.0	-87.2	-24.59	-43.26
	 485	1	15	1.0	-89.33	-25.47	-46.22
	 486	1	7	0.5	-91.0	-28.22	-48.16
	 487	1	6	0.0	-94.09	-26.58	-49.65
	 488	1	7	0.5	-96.86	-27.75	-52.07
	 489	1	6	0.0	-98.1	-29.72	-49.0
	 490	1	21	-2.0	-100.82	-32.29	-49.67
	 491	1	14	0.0	-102.97	-35.33	-48.97
	 492	1	17	0.0	-99.94	-37.48	-48.33
	 493	1	16	0.0	-101.55	-40.65	-49.7
	 494	1	10	0.0	-102.08	-40.68	-53.44
	 495	1	6	0.0	-102.58	-41.01	-57.18
	 496	1	16	0.0	-104.8	-38.15	-58.34
	 497	1	8	0.0	-107.97	-39.51	-56.69
	 498	1	9	1.0	-109.51	-41.63	-53.91
	 499	1	15	1.0	-111.9	-44.49	-53.04
	 500	1	9	1.0	-113.15	-46.81	-55.71
	 501	1	16	0.0	-112.89	-48.23	-59.18
	 502	1	8	0.0	-109.77	-47.47	-61.22
	 503	1	11	0.0	-109.43	-43.7	-61.72
	 504	1	4	-1.0	-110.32	-40.02	-62.26
	 505	1	15	1.0	-112.05	-36.86	-61.11
	 506	1	11	0.0	-112.85	-33.34	-62.17
	 507	1	6	0.0	-110.63	-30.62	-63.61
	 508	1	15	1.0	-109.21	-27.06	-64.07
	 509	1	13	0.0	-107.23	-26.59	-67.29
	 510	1	17	0.0	-106.54	-23.03	-68.65
	 511	1	16	0.0	-103.61	-22.76	-71.02
	 512	1	13	0.0	-102.24	-20.54	-68.26
	 513	1	5	0.0	-100.92	-17.71	-66.11
	 514	1	11	0.0	-102.69	-14.36	-65.78
	 515	1	6	0.0	-105.73	-12.31	-67.02
	 516	1	16	0.0	-107.79	-9.18	-67.65
	 517	1	16	0.0	-105.75	-6.3	-69.01
	 518	1	5	0.0	-105.12	-3.68	-66.36
	 519	1	16	0.0	-103.28	-0.54	-67.43
	 520	1	12	0.0	-101.03	2.46	-67.92
	 521	1	11	0.0	-100.83	6.3	-67.63
	 522	1	6	0.0	-98.78	6.82	-64.37
	 523	1	16	0.0	-99.87	10.39	-63.42
	 524	1	15	1.0	-101.64	13.56	-62.26
	 525	1	16	0.0	-104.08	14.94	-64.86
	 526	1	17	0.0	-106.99	16.06	-67.19
	 527	1	16	0.0	-109.68	17.49	-65.0
	 528	1	13	0.0	-112.64	19.59	-66.23
	 529	1	17	0.0	-110.72	22.25	-68.2
	 530	1	9	1.0	-111.89	22.65	-71.81
	 531	1	4	-1.0	-110.99	24.09	-75.25
	 532	1	6	0.0	-109.31	22.45	-78.26
	 533	1	5	0.0	-105.58	21.54	-78.29
	 534	1	1	0.0	-102.55	19.19	-78.18
	 535	1	16	0.0	-99.53	20.93	-76.73
	 536	1	12	0.0	-97.29	20.24	-73.71
	 537	1	14	0.0	-96.66	23.01	-71.24
	 538	1	7	0.5	-98.71	26.17	-71.86
	 539	1	1	0.0	-96.06	28.87	-71.66
	 540	1	17	0.0	-96.38	32.61	-72.09
	 541	1	6	0.0	-98.61	35.37	-73.4
	 542	1	1	0.0	-99.71	36.5	-69.88
	 543	1	16	0.0	-97.9	35.62	-66.75
	 544	1	18	0.0	-98.15	36.0	-62.94
	 545	1	14	0.0	-96.66	32.75	-61.72
	 546	1	16	0.0	-97.12	29.45	-63.62
	 547	1	3	-1.0	-100.4	27.86	-64.7
	 548	1	4	-1.0	-103.38	26.22	-66.51
	 549	1	10	0.0	-105.85	28.74	-67.85
	 550	1	4	-1.0	-108.94	30.91	-67.97
	 551	1	3	-1.0	-107.63	33.35	-70.6
	 552	1	8	0.0	-110.33	32.69	-73.14
	 553	1	3	-1.0	-113.15	32.58	-75.65
	 554	1	13	0.0	-113.46	31.44	-79.33
	 555	1	15	1.0	-114.89	32.12	-82.85
	 556	1	1	0.0	-115.63	30.01	-86.01
	 557	1	12	0.0	-113.81	27.27	-87.85
	 558	1	18	0.0	-112.3	29.37	-90.69
	 559	1	18	0.0	-108.53	29.53	-90.26
	 560	1	10	0.0	-106.19	26.86	-88.94
	 561	1	12	0.0	-106.31	25.59	-85.29
	 562	1	18	0.0	-107.66	22.34	-83.87
	 563	1	6	0.0	-105.35	19.36	-84.3
	 564	1	13	0.0	-106.55	16.01	-82.95
	 565	1	12	0.0	-107.82	13.15	-80.67
	 566	1	11	0.0	-107.38	14.33	-77.09
	 567	1	10	0.0	-107.68	14.68	-73.33
	 568	1	16	0.0	-111.52	14.68	-72.83
	 569	1	18	0.0	-114.25	12.28	-74.08
	 570	1	6	0.0	-112.84	9.3	-72.15
	 571	1	4	-1.0	-112.38	6.52	-74.67
	 572	1	1	0.0	-109.9	4.22	-76.65
	 573	1	13	0.0	-110.64	1.0	-78.45
	 574	1	18	0.0	-114.04	1.46	-80.23
	 575	1	4	-1.0	-114.0	4.65	-82.24
	 576	1	16	0.0	-111.04	7.1	-81.79
	 577	1	17	0.0	-109.83	8.06	-85.26
	 578	1	16	0.0	-109.51	4.8	-87.27
	 579	1	9	1.0	-111.69	2.09	-88.68
	 580	1	4	-1.0	-110.64	0.2	-91.81
	 581	1	4	-1.0	-107.36	1.87	-92.77
	 582	1	3	-1.0	-106.36	5.51	-92.11
	 583	1	9	1.0	-104.47	7.25	-89.28
	 584	1	3	-1.0	-101.48	8.7	-91.07
	 585	1	18	0.0	-98.2	10.67	-91.21
	 586	1	13	0.0	-97.06	11.76	-87.74
	 587	1	3	-1.0	-96.7	15.24	-86.14
	 588	1	13	0.0	-98.01	17.44	-89.0
	 589	1	8	0.0	-101.44	16.08	-88.8
	 590	1	1	0.0	-103.09	15.08	-92.07
	 591	1	12	0.0	-106.28	16.49	-93.47
	 592	1	1	0.0	-104.34	19.42	-94.96
	 593	1	11	0.0	-105.97	22.95	-94.99
	 594	1	1	0.0	-104.29	25.89	-96.75
	 595	1	4	-1.0	-101.89	28.81	-96.31
	 596	1	10	0.0	-99.17	29.96	-93.95
	 597	1	16	0.0	-99.79	28.94	-90.32
	 598	1	16	0.0	-97.86	29.64	-87.03
	 599	1	16	0.0	-100.17	26.91	-86.05
	 600	1	11	0.0	-98.38	23.57	-86.62
	 601	1	15	1.0	-95.01	23.43	-88.23
	 602	1	15	1.0	-92.46	21.51	-90.34
	 603	1	15	1.0	-93.07	18.76	-92.93
	 604	1	14	0.0	-95.29	16.71	-95.25
	 605	1	16	0.0	-98.05	17.26	-97.78
	 606	1	17	0.0	-100.83	17.22	-100.42
	 607	1	16	0.0	-102.94	20.41	-100.28
	 608	1	18	0.0	-104.36	23.13	-102.42
	 609	1	3	-1.0	-103.03	26.01	-104.56
	 610	1	3	-1.0	-104.37	28.35	-107.28
	 611	1	4	-1.0	-108.02	28.71	-108.57
	 612	1	1	0.0	-109.42	27.39	-105.24
	 613	1	13	0.0	-109.87	27.96	-101.52
	 614	1	18	0.0	-112.65	29.68	-99.63
	 615	1	16	0.0	-115.1	30.48	-102.45
	 616	1	10	0.0	-118.9	30.15	-102.74
	 617	1	16	0.0	-122.64	30.63	-102.17
	 618	1	9	1.0	-126.13	29.4	-102.83
	 619	1	17	0.0	-128.5	31.28	-100.54
	 620	1	16	0.0	-131.22	33.98	-101.2
	 621	1	16	0.0	-134.51	33.76	-103.19
	 622	1	16	0.0	-133.13	36.88	-104.98
	 623	1	17	0.0	-129.35	36.61	-105.4
	 624	1	15	1.0	-126.4	38.91	-105.07
	 625	1	10	0.0	-125.09	41.58	-107.43
	 626	1	12	0.0	-122.42	44.17	-107.34
	 627	1	6	0.0	-119.75	46.87	-106.77
	 628	1	10	0.0	-116.54	48.76	-107.14
	 629	1	6	0.0	-118.42	51.67	-105.45
	 630	1	20	0.0	-119.09	55.42	-105.45
	 631	1	7	0.5	-116.16	57.57	-106.79
	 632	1	16	0.0	-117.73	58.62	-110.1
	 633	1	15	1.0	-116.13	58.53	-113.53
	 634	1	12	0.0	-117.41	56.18	-116.27
	 635	1	17	0.0	-114.74	55.7	-118.88
	 636	1	21	-2.0	-111.09	54.58	-118.98
	 637	1	8	0.0	-109.79	54.73	-122.53
	 638	1	1	0.0	-110.0	54.5	-126.38
	 639	1	16	0.0	-111.39	54.44	-129.91
	 640	1	3	-1.0	-113.54	57.05	-131.65
	 641	1	8	0.0	-113.94	57.7	-135.38
	 642	1	3	-1.0	-115.56	54.83	-137.28
	 643	1	6	0.0	-114.75	51.12	-136.69
	 644	1	18	0.0	-111.57	50.06	-138.35
	 645	1	13	0.0	-112.06	48.38	-141.72
	 646	1	9	1.0	-114.95	49.43	-144.0
	 647	1	9	1.0	-115.47	52.49	-146.3
	 648	1	16	0.0	-114.77	54.09	-149.73
	 649	1	17	0.0	-111.49	56.15	-149.59
	 650	1	10	0.0	-108.22	55.04	-151.13
	 651	1	6	0.0	-105.84	53.03	-153.25
	 652	1	1	0.0	-105.32	53.64	-156.93
	 653	1	13	0.0	-105.45	50.73	-159.31
	 654	1	13	0.0	-102.15	50.66	-161.25
	 655	1	1	0.0	-102.32	47.89	-163.88
	 656	1	1	0.0	-101.87	48.3	-167.64
	 657	1	7	0.5	-98.92	46.3	-168.88
	 658	1	17	0.0	-96.17	45.15	-166.51
	 659	1	16	0.0	-95.38	44.88	-162.77
	 660	1	1	0.0	-93.37	41.63	-162.3
	 661	1	14	0.0	-89.9	43.04	-161.66
	 662	1	11	0.0	-88.07	42.01	-164.9
	 663	1	14	0.0	-90.7	40.98	-167.5
	 664	1	15	1.0	-92.29	41.35	-171.04
	 665	1	11	0.0	-91.83	37.79	-172.43
	 666	1	16	0.0	-89.34	36.82	-175.18
	 667	1	12	0.0	-86.08	38.48	-176.39
	 668	1	16	0.0	-84.47	36.83	-173.32
	 669	1	5	0.0	-83.91	35.08	-169.87
	 670	1	1	0.0	-80.21	36.21	-169.98
	 671	1	16	0.0	-78.61	36.61	-173.37
	 672	1	14	0.0	-78.01	37.07	-177.11
	 673	1	17	0.0	-74.99	38.87	-178.55
	 674	1	9	1.0	-73.81	41.76	-180.69
	 675	1	14	0.0	-75.17	41.37	-184.25
	 676	1	18	0.0	-76.26	42.88	-187.58
	 677	1	5	0.0	-79.66	44.5	-187.45
	 678	1	6	0.0	-78.92	47.12	-190.03
	 679	1	4	-1.0	-80.05	49.87	-192.47
	 680	1	14	0.0	-83.18	50.92	-190.51
	 681	1	15	1.0	-84.4	54.45	-191.43
	 682	1	17	0.0	-83.45	55.59	-194.94
	 683	1	4	-1.0	-82.09	53.06	-197.51
	 684	1	12	0.0	-80.54	51.08	-200.29
	 685	1	16	0.0	-76.86	51.21	-201.19
	 686	1	1	0.0	-74.36	48.36	-202.12
	 687	1	15	1.0	-72.93	49.79	-205.49
	 688	1	4	-1.0	-71.72	53.36	-205.27
	 689	1	16	0.0	-68.37	54.59	-206.61
	 690	1	10	0.0	-65.33	53.58	-204.65
	 691	1	15	1.0	-62.21	51.83	-205.94
	 692	1	7	0.5	-62.17	48.03	-206.27
	 693	1	16	0.0	-63.38	45.75	-209.17
	 694	1	15	1.0	-61.61	42.42	-209.84
	 695	1	16	0.0	-61.86	38.83	-211.1
	 696	1	12	0.0	-60.98	38.49	-214.82
	 697	1	11	0.0	-58.19	36.8	-216.71
	 698	1	16	0.0	-55.13	36.93	-214.53
	 699	1	15	1.0	-51.55	37.38	-213.69
	 700	1	16	0.0	-49.82	36.37	-210.48
	 701	1	13	0.0	-46.63	34.25	-210.39
	 702	1	16	0.0	-45.57	35.99	-207.09
	 703	1	13	0.0	-44.72	38.19	-204.05
	 704	1	11	0.0	-45.2	41.36	-201.99
	 705	1	10	0.0	-44.34	44.48	-199.97
	 706	1	16	0.0	-42.5	44.1	-196.65
	 707	1	15	1.0	-42.76	43.57	-192.91
	 708	1	15	1.0	-43.69	42.01	-189.58
	 709	1	16	0.0	-43.29	38.21	-189.42
	 710	1	16	0.0	-43.99	34.88	-187.65
	 711	1	17	0.0	-45.02	32.67	-184.7
	 712	1	10	0.0	-46.59	32.61	-181.26
	 713	1	15	1.0	-45.42	31.33	-177.89
	 714	1	13	0.0	-42.75	29.11	-176.34
	 715	1	16	0.0	-39.59	27.8	-174.56
	 716	1	5	0.0	-38.75	26.9	-170.97
	 717	1	4	-1.0	-42.02	26.98	-169.0
	 718	1	15	1.0	-45.2	25.02	-169.09
	 719	1	21	-2.0	-47.24	27.17	-166.68
	 720	1	1	0.0	-50.14	28.64	-168.6
	 721	1	21	-2.0	-51.4	32.06	-167.28
	 722	1	16	0.0	-54.6	33.5	-165.73
	 723	1	10	0.0	-57.94	33.0	-163.94
	 724	1	16	0.0	-60.62	35.7	-164.66
	 725	1	18	0.0	-62.33	38.83	-166.04
	 726	1	15	1.0	-64.74	39.61	-163.1
	 727	1	14	0.0	-64.78	40.11	-159.33
	 728	1	16	0.0	-61.23	41.03	-158.21
	 729	1	3	-1.0	-59.02	43.97	-157.24
	 730	1	18	0.0	-56.23	41.65	-156.16
	 731	1	18	0.0	-58.19	38.99	-154.13
	 732	1	16	0.0	-59.86	39.31	-150.73
	 733	1	13	0.0	-59.9	38.75	-146.95
	 734	1	1	0.0	-58.48	38.34	-143.43
	 735	1	13	0.0	-54.71	39.11	-143.67
	 736	1	16	0.0	-52.0	41.73	-143.6
	 737	1	17	0.0	-53.44	45.29	-143.08
	 738	1	15	1.0	-57.21	45.23	-142.43
	 739	1	1	0.0	-58.57	43.99	-139.06
	 740	1	15	1.0	-61.95	44.03	-137.46
	 741	1	6	0.0	-61.93	40.54	-135.95
	 742	1	14	0.0	-59.96	38.08	-137.97
	 743	1	16	0.0	-57.97	35.83	-135.61
	 744	1	18	0.0	-55.45	33.53	-133.86
	 745	1	16	0.0	-56.79	30.34	-132.31
	 746	1	6	0.0	-60.49	29.31	-132.06
	 747	1	14	0.0	-63.41	30.83	-133.84
	 748	1	14	0.0	-65.6	29.66	-136.79
	 749	1	15	1.0	-66.02	32.85	-138.87
	 750	1	13	0.0	-69.65	33.54	-137.73
	 751	1	16	0.0	-69.71	34.47	-134.05
	 752	1	16	0.0	-72.9	32.6	-133.14
	 753	1	16	0.0	-73.97	35.73	-131.07
	 754	1	11	0.0	-76.9	37.76	-129.62
	 755	1	16	0.0	-80.38	39.34	-129.91
	 756	1	10	0.0	-82.6	42.05	-128.31
	 757	1	20	0.0	-82.31	42.67	-124.56
	 758	1	6	0.0	-78.78	42.74	-123.08
	 759	1	4	-1.0	-76.63	39.81	-124.3
	 760	1	20	0.0	-75.64	36.3	-123.3
	 761	1	12	0.0	-78.65	36.16	-120.96
	 762	1	9	1.0	-82.16	36.26	-119.43
	 763	1	21	-2.0	-85.74	35.53	-120.33
	 764	1	14	0.0	-86.58	35.18	-124.06
	 765	1	13	0.0	-88.84	32.94	-126.16
	 766	1	14	0.0	-92.53	33.59	-126.79
	 767	1	10	0.0	-93.99	30.45	-128.29
	 768	1	16	0.0	-97.59	29.08	-128.47
	 769	1	11	0.0	-100.37	28.29	-125.91
	 770	1	14	0.0	-102.57	25.76	-124.08
	 771	1	15	1.0	-105.61	23.56	-124.78
	 772	1	16	0.0	-104.97	20.13	-123.14
	 773	1	18	0.0	-105.71	17.13	-125.26
	 774	1	16	0.0	-104.91	13.41	-125.85
	 775	1	13	0.0	-104.52	9.88	-124.38
	 776	1	12	0.0	-104.5	8.58	-120.82
	 777	1	13	0.0	-103.33	10.43	-117.66
	 778	1	10	0.0	-102.4	12.67	-114.73
	 779	1	6	0.0	-100.03	15.6	-115.31
	 780	1	13	0.0	-100.11	18.23	-118.04
	 781	1	12	0.0	-100.51	15.48	-120.66
	 782	1	15	1.0	-98.84	14.04	-123.69
	 783	1	15	1.0	-98.73	12.18	-127.06
	 784	1	16	0.0	-99.06	8.55	-128.47
	 785	1	16	0.0	-99.51	5.05	-127.06
	 786	1	16	0.0	-100.02	1.55	-128.59
	 787	1	18	0.0	-97.48	-1.29	-129.25
	 788	1	10	0.0	-96.51	-4.93	-128.81
	 789	1	14	0.0	-94.07	-5.86	-131.59
	 790	1	16	0.0	-93.77	-8.63	-134.25
	 791	1	14	0.0	-93.84	-8.79	-138.04
	 792	1	9	1.0	-96.07	-8.11	-141.1
	 793	1	16	0.0	-97.21	-11.1	-143.26
	 794	1	17	0.0	-93.83	-12.87	-143.74
	 795	1	16	0.0	-91.49	-11.08	-146.1
	 796	1	16	0.0	-91.12	-8.57	-149.02
	 797	1	12	0.0	-89.0	-5.72	-150.49
	 798	1	17	0.0	-87.71	-8.12	-153.19
	 799	1	16	0.0	-86.39	-9.52	-156.52
	 800	1	12	0.0	-88.45	-7.21	-158.73
	 801	1	15	1.0	-89.76	-3.99	-160.42
	 802	1	12	0.0	-90.92	-4.2	-164.06
	 803	1	12	0.0	-92.88	-7.45	-164.78
	 804	1	6	0.0	-94.62	-8.34	-168.09
	 805	1	6	0.0	-95.27	-5.57	-170.56
	 806	1	20	0.0	-96.55	-2.76	-168.22
	 807	1	16	0.0	-97.61	-4.37	-164.9
	 808	1	6	0.0	-98.32	-6.94	-162.23
	 809	1	16	0.0	-99.68	-10.25	-163.48
	 810	1	15	1.0	-102.52	-10.85	-165.94
	 811	1	13	0.0	-104.82	-12.25	-163.19
	 812	1	16	0.0	-104.06	-12.88	-159.5
	 813	1	16	0.0	-103.1	-16.36	-160.77
	 814	1	4	-1.0	-100.04	-18.46	-161.69
	 815	1	11	0.0	-102.01	-21.43	-160.53
	 816	1	6	0.0	-104.95	-22.92	-162.41
	 817	1	7	0.5	-105.61	-21.88	-166.04
	 818	1	15	1.0	-109.14	-22.02	-167.42
	 819	1	20	0.0	-111.04	-22.21	-164.09
	 820	1	6	0.0	-113.63	-20.98	-161.71
	 821	1	16	0.0	-111.19	-18.65	-160.05
	 822	1	11	0.0	-112.63	-19.94	-156.78
	 823	1	16	0.0	-111.26	-17.19	-154.65
	 824	1	6	0.0	-114.77	-15.92	-154.04
	 825	1	15	1.0	-118.14	-15.41	-155.76
	 826	1	16	0.0	-119.85	-16.85	-152.66
	 827	1	11	0.0	-119.89	-15.49	-149.06
	 828	1	15	1.0	-122.86	-15.81	-146.8
	 829	1	14	0.0	-126.01	-17.45	-148.15
	 830	1	18	0.0	-127.07	-16.62	-151.76
	 831	1	16	0.0	-128.13	-13.02	-151.1
	 832	1	14	0.0	-129.98	-9.84	-152.06
	 833	1	15	1.0	-132.59	-8.76	-149.48
	 834	1	16	0.0	-133.31	-6.38	-146.68
	 835	1	17	0.0	-134.44	-5.82	-143.08
	 836	1	16	0.0	-137.34	-3.27	-143.21
	 837	1	15	1.0	-136.33	0.26	-142.32
	 838	1	1	0.0	-135.65	0.34	-138.54
	 839	1	15	1.0	-136.99	-2.62	-136.44
	 840	1	16	0.0	-140.14	-1.67	-134.49
	 841	1	13	0.0	-142.1	-2.23	-131.26
	 842	1	4	-1.0	-144.27	-4.6	-129.32
	 843	1	13	0.0	-147.78	-5.28	-128.12
	 844	1	17	0.0	-150.13	-6.22	-130.97
	 845	1	12	0.0	-153.18	-4.71	-132.63
	 846	1	15	1.0	-156.26	-6.5	-131.27
	 847	1	12	0.0	-158.62	-4.53	-129.1
	 848	1	16	0.0	-159.2	-6.52	-125.91
	 849	1	18	0.0	-157.67	-9.79	-124.69
	 850	1	14	0.0	-157.4	-9.32	-120.89
	 851	1	16	0.0	-156.31	-9.1	-117.23