LAMMPS data file via pdbToData.py

1854 atoms
23 atom types
1197 bonds
1 bond types

-250.0 250.0 xlo xhi
-250.0 250.0 ylo yhi
-250.0 250.0 zlo zhi

Masses

1 71.08
2 103.1
3 115.1
4 129.1
5 147.2
6 57.05
7 137.1
8 113.2
9 128.2
10 113.2
11 131.2
12 114.1
13 97.12
14 128.1
15 156.2
16 87.08
17 101.1
18 99.07
19 186.2
20 163.2
21 165.03
22 179.05
23 241.15

Atoms

	   1	1	11	0.0	-47.54	-3.08	175.65
	   2	1	4	-1.0	-45.85	-4.23	172.4
	   3	1	18	0.0	-46.62	-6.03	169.22
	   4	1	12	0.0	-44.44	-9.11	168.76
	   5	1	6	0.0	-41.49	-7.07	167.51
	   6	1	18	0.0	-37.87	-8.33	168.2
	   7	1	16	0.0	-36.47	-9.15	171.57
	   8	1	14	0.0	-37.49	-7.18	174.63
	   9	1	16	0.0	-36.6	-7.85	178.24
	  10	1	4	-1.0	-34.77	-10.34	180.46
	  11	1	1	0.0	-34.62	-14.16	181.07
	  12	1	1	0.0	-34.33	-15.73	177.58
	  13	1	13	0.0	-33.43	-12.99	175.08
	  14	1	20	0.0	-30.53	-10.7	176.09
	  15	1	18	0.0	-28.38	-9.23	178.81
	  16	1	17	0.0	-27.55	-7.17	181.89
	  17	1	9	1.0	-24.51	-7.77	184.13
	  18	1	16	0.0	-23.66	-11.28	182.9
	  19	1	16	0.0	-20.24	-12.74	183.41
	  20	1	18	0.0	-16.63	-13.89	183.77
	  21	1	9	1.0	-13.26	-13.06	182.23
	  22	1	5	0.0	-12.49	-13.99	178.57
	  23	1	15	1.0	-12.22	-17.05	176.26
	  24	1	3	-1.0	-9.13	-18.43	174.6
	  25	1	12	0.0	-7.41	-21.33	172.89
	  26	1	5	0.0	-7.67	-24.73	174.46
	  27	1	19	0.0	-7.61	-28.5	173.91
	  28	1	6	0.0	-4.32	-29.85	175.04
	  29	1	16	0.0	-0.61	-30.48	175.61
	  30	1	4	-1.0	1.88	-33.28	176.1
	  31	1	3	-1.0	4.56	-31.27	177.84
	  32	1	1	0.0	7.56	-32.19	179.93
	  33	1	6	0.0	9.75	-34.35	182.29
	  34	1	11	0.0	11.5	-37.15	184.18
	  35	1	3	-1.0	14.58	-36.68	186.53
	  36	1	1	0.0	16.25	-33.94	184.46
	  37	1	10	0.0	18.17	-32.6	187.47
	  38	1	11	0.0	21.2	-31.54	185.46
	  39	1	16	0.0	19.38	-28.2	185.72
	  40	1	15	1.0	20.74	-27.95	189.27
	  41	1	17	0.0	24.38	-28.51	188.31
	  42	1	9	1.0	23.8	-26.46	185.13
	  43	1	16	0.0	22.31	-23.63	187.21
	  44	1	16	0.0	25.47	-23.68	189.34
	  45	1	10	0.0	27.17	-22.52	186.17
	  46	1	16	0.0	24.69	-19.68	185.79
	  47	1	18	0.0	25.78	-18.48	189.25
	  48	1	10	0.0	29.54	-18.76	188.67
	  49	1	4	-1.0	29.45	-16.06	185.94
	  50	1	16	0.0	26.6	-13.84	187.19
	  51	1	8	0.0	28.64	-13.05	190.32
	  52	1	3	-1.0	32.13	-13.11	188.78
	  53	1	4	-1.0	30.55	-10.38	186.66
	  54	1	5	0.0	29.81	-8.46	189.85
	  55	1	20	0.0	33.37	-8.73	191.17
	  56	1	1	0.0	34.7	-7.6	187.78
	  57	1	9	1.0	31.98	-4.96	187.74
	  58	1	15	1.0	33.03	-3.82	191.21
	  59	1	1	0.0	36.73	-3.59	190.39
	  60	1	16	0.0	35.85	-1.88	187.1
	  61	1	8	0.0	33.68	0.57	189.06
	  62	1	4	-1.0	35.88	1.2	192.13
	  63	1	15	1.0	38.5	2.91	189.97
	  64	1	4	-1.0	36.38	4.98	187.57
	  65	1	20	0.0	33.8	5.85	190.23
	  66	1	1	0.0	36.4	6.05	193.01
	  67	1	16	0.0	39.93	6.57	191.68
	  68	1	9	1.0	39.25	8.57	188.53
	  69	1	10	0.0	38.7	11.38	191.08
	  70	1	14	0.0	41.84	11.61	193.24
	  71	1	4	-1.0	44.05	10.42	190.37
	  72	1	10	0.0	42.54	13.22	188.28
	  73	1	1	0.0	41.56	15.94	190.75
	  74	1	1	0.0	44.62	15.79	192.98
	  75	1	16	0.0	47.41	15.9	190.37
	  76	1	16	0.0	45.65	17.49	187.4
	  77	1	1	0.0	43.86	20.35	189.19
	  78	1	3	-1.0	47.1	20.86	191.19
	  79	1	8	0.0	50.8	21.21	190.17
	  80	1	13	0.0	50.72	24.92	189.16
	  81	1	4	-1.0	53.73	27.18	188.97
	  82	1	18	0.0	52.16	29.59	191.48
	  83	1	6	0.0	55.21	30.85	193.3
	  84	1	16	0.0	55.23	30.16	197.05
	  85	1	17	0.0	56.52	33.81	197.24
	  86	1	10	0.0	58.16	32.91	200.56
	  87	1	12	0.0	61.68	34.34	200.28
	  88	1	12	0.0	62.6	31.98	203.14
	  89	1	8	0.0	64.68	29.2	201.59
	  90	1	10	0.0	63.38	26.95	204.38
	  91	1	16	0.0	59.77	27.79	205.25
	  92	1	11	0.0	59.37	27.37	201.49
	  93	1	15	1.0	60.84	23.87	201.5
	  94	1	17	0.0	57.89	22.84	203.67
	  95	1	4	-1.0	55.17	24.43	201.53
	  96	1	17	0.0	56.42	22.77	198.32
	  97	1	6	0.0	57.01	19.67	200.45
	  98	1	16	0.0	53.3	19.78	201.22
	  99	1	11	0.0	52.57	20.46	197.54
	 100	1	1	0.0	54.95	17.75	196.36
	 101	1	9	1.0	53.65	15.08	198.75
	 102	1	1	0.0	50.13	15.95	197.65
	 103	1	7	0.5	51.35	14.89	194.2
	 104	1	4	-1.0	53.39	11.94	195.44
	 105	1	4	-1.0	50.21	10.8	197.11
	 106	1	18	0.0	48.25	10.84	193.83
	 107	1	16	0.0	51.02	8.91	192.01
	 108	1	14	0.0	49.9	6.04	194.31
	 109	1	14	0.0	46.15	6.11	193.66
	 110	1	8	0.0	46.99	5.99	189.96
	 111	1	12	0.0	48.95	2.82	190.72
	 112	1	17	0.0	45.83	1.14	192.14
	 113	1	4	-1.0	43.73	2.41	189.21
	 114	1	10	0.0	46.31	0.77	186.93
	 115	1	15	1.0	47.28	-2.31	188.99
	 116	1	12	0.0	43.69	-3.15	189.98
	 117	1	9	1.0	42.42	-2.97	186.4
	 118	1	8	0.0	45.31	-5.27	185.62
	 119	1	15	1.0	43.73	-7.76	188.07
	 120	1	4	-1.0	40.12	-7.64	186.88
	 121	1	20	0.0	41.74	-9.02	183.7
	 122	1	8	0.0	42.28	-12.15	185.83
	 123	1	3	-1.0	38.55	-12.51	186.36
	 124	1	14	0.0	38.28	-13.13	182.61
	 125	1	17	0.0	41.01	-15.75	182.89
	 126	1	4	-1.0	38.37	-17.41	185.12
	 127	1	14	0.0	35.09	-16.02	183.78
	 128	1	14	0.0	36.09	-17.5	180.42
	 129	1	9	1.0	38.74	-20.09	181.38
	 130	1	18	0.0	36.05	-21.93	183.41
	 131	1	18	0.0	34.21	-22.23	180.08
	 132	1	1	0.0	37.19	-24.3	178.9
	 133	1	1	0.0	36.53	-26.59	181.92
	 134	1	12	0.0	32.73	-26.69	181.65
	 135	1	1	0.0	31.87	-26.74	177.93
	 136	1	8	0.0	34.11	-29.77	177.17
	 137	1	4	-1.0	32.75	-32.37	179.61
	 138	1	4	-1.0	29.24	-30.89	179.33
	 139	1	10	0.0	28.3	-31.37	175.66
	 140	1	20	0.0	30.23	-34.66	175.72
	 141	1	14	0.0	27.88	-35.67	178.56
	 142	1	9	1.0	24.72	-34.3	176.89
	 143	1	9	1.0	24.81	-36.67	173.91
	 144	1	17	0.0	24.64	-39.81	176.08
	 145	1	1	0.0	22.13	-38.11	178.37
	 146	1	10	0.0	19.54	-38.09	175.54
	 147	1	4	-1.0	20.3	-41.58	174.17
	 148	1	8	0.0	18.83	-42.8	177.46
	 149	1	3	-1.0	15.86	-40.51	177.02
	 150	1	10	0.0	14.52	-42.03	173.79
	 151	1	16	0.0	15.69	-45.56	174.57
	 152	1	9	1.0	13.52	-45.47	177.7
	 153	1	9	1.0	10.81	-43.97	175.52
	 154	1	9	1.0	11.41	-46.88	173.16
	 155	1	3	-1.0	11.08	-49.2	176.17
	 156	1	1	0.0	7.83	-47.61	177.37
	 157	1	20	0.0	6.76	-47.73	173.73
	 158	1	4	-1.0	7.61	-51.47	173.78
	 159	1	20	0.0	5.25	-52.06	176.71
	 160	1	16	0.0	3.2	-54.2	174.33
	 161	1	2	0.0	4.46	-57.35	176.03
	 162	1	12	0.0	1.82	-56.38	178.59
	 163	1	9	1.0	-0.85	-55.42	176.04
	 164	1	10	0.0	-0.79	-58.9	174.45
	 165	1	12	0.0	-0.46	-60.62	177.84
	 166	1	16	0.0	-3.68	-58.85	178.86
	 167	1	20	0.0	-5.46	-60.19	175.75
	 168	1	11	0.0	-3.77	-63.55	176.25
	 169	1	15	1.0	-5.25	-64.13	179.73
	 170	1	14	0.0	-8.68	-62.95	178.63
	 171	1	17	0.0	-8.7	-65.85	176.17
	 172	1	9	1.0	-7.76	-68.28	178.95
	 173	1	9	1.0	-10.34	-66.67	181.25
	 174	1	11	0.0	-13.16	-67.13	178.76
	 175	1	17	0.0	-12.17	-70.73	177.97
	 176	1	6	0.0	-13.76	-71.87	181.22
	 177	1	15	1.0	-17.05	-71.69	179.27
	 178	1	4	-1.0	-15.59	-73.78	176.38
	 179	1	10	0.0	-16.85	-72.19	173.19
	 180	1	3	-1.0	-15.03	-75.04	171.42
	 181	1	9	1.0	-12.02	-73.67	169.56
	 182	1	20	0.0	-10.8	-70.52	171.3
	 183	1	12	0.0	-7.7	-72.69	171.84
	 184	1	10	0.0	-6.52	-71.89	168.31
	 185	1	9	1.0	-6.7	-68.19	169.21
	 186	1	8	0.0	-4.76	-69.08	172.37
	 187	1	15	1.0	-1.93	-70.48	170.3
	 188	1	14	0.0	-1.72	-67.2	168.36
	 189	1	1	0.0	-1.44	-65.04	171.47
	 190	1	1	0.0	0.97	-67.66	172.84
	 191	1	10	0.0	3.29	-67.33	169.85
	 192	1	1	0.0	2.64	-63.55	169.86
	 193	1	18	0.0	3.62	-63.2	173.53
	 194	1	9	1.0	6.81	-65.16	172.93
	 195	1	9	1.0	7.97	-62.89	170.1
	 196	1	11	0.0	6.95	-59.64	171.82
	 197	1	3	-1.0	8.72	-60.3	175.11
	 198	1	1	0.0	11.78	-61.22	173.04
	 199	1	4	-1.0	11.47	-57.56	172.03
	 200	1	20	0.0	10.96	-56.43	175.65
	 201	1	15	1.0	13.99	-58.4	176.85
	 202	1	4	-1.0	16.05	-57.0	173.99
	 203	1	17	0.0	15.06	-53.38	174.6
	 204	1	12	0.0	15.53	-53.86	178.36
	 205	1	4	-1.0	19.06	-55.27	178.32
	 206	1	10	0.0	20.1	-52.52	175.9
	 207	1	10	0.0	18.5	-49.75	177.96
	 208	1	10	0.0	20.09	-51.37	181.0
	 209	1	17	0.0	23.68	-50.8	179.88
	 210	1	18	0.0	22.73	-47.47	178.29
	 211	1	17	0.0	21.98	-46.25	181.8
	 212	1	15	1.0	24.45	-48.54	183.6
	 213	1	4	-1.0	27.02	-46.7	181.44
	 214	1	19	0.0	25.34	-43.47	182.56
	 215	1	8	0.0	25.42	-44.04	186.33
	 216	1	3	-1.0	29.15	-44.49	185.7
	 217	1	15	1.0	29.76	-41.42	183.54
	 218	1	19	0.0	27.43	-39.1	185.5
	 219	1	17	0.0	29.56	-39.6	188.63
	 220	1	4	-1.0	32.36	-38.09	186.51
	 221	1	18	0.0	30.49	-34.78	186.02
	 222	1	2	0.0	29.46	-34.79	189.68
	 223	1	3	-1.0	33.14	-35.1	190.63
	 224	1	1	0.0	34.45	-32.69	187.98
	 225	1	5	0.0	31.94	-29.95	188.92
	 226	1	14	0.0	32.83	-30.35	192.59
	 227	1	7	0.5	36.47	-29.73	191.56
	 228	1	8	0.0	36.07	-26.41	189.69
	 229	1	4	-1.0	33.29	-25.25	191.99
	 230	1	4	-1.0	35.74	-25.76	194.85
	 231	1	20	0.0	38.68	-24.2	193.03
	 232	1	15	1.0	36.51	-21.23	192.02
	 233	1	10	0.0	36.32	-20.5	195.76
	 234	1	4	-1.0	40.13	-20.64	196.07
	 235	1	5	0.0	40.22	-18.28	193.1
	 236	1	10	0.0	37.7	-15.97	194.76
	 237	1	9	1.0	39.48	-16.05	198.13
	 238	1	17	0.0	43.0	-15.78	196.73
	 239	1	12	0.0	42.04	-13.04	194.25
	 240	1	11	0.0	40.24	-11.1	197.01
	 241	1	19	0.0	43.09	-11.52	199.49
	 242	1	1	0.0	45.16	-9.84	196.76
	 243	1	20	0.0	42.59	-7.02	196.62
	 244	1	1	0.0	43.28	-5.48	200.02
	 245	1	12	0.0	47.0	-6.09	199.51
	 246	1	8	0.0	46.59	-3.85	196.46
	 247	1	8	0.0	45.0	-1.05	198.48
	 248	1	16	0.0	47.02	-1.63	201.65
	 249	1	17	0.0	50.0	-0.74	199.47
	 250	1	1	0.0	48.18	2.49	198.54
	 251	1	2	0.0	47.52	3.24	202.19
	 252	1	18	0.0	51.13	2.66	203.21
	 253	1	9	1.0	52.34	4.68	200.19
	 254	1	3	-1.0	50.69	8.04	200.94
	 255	1	3	-1.0	51.02	7.5	204.68
	 256	1	4	-1.0	54.74	7.06	204.17
	 257	1	16	0.0	54.51	10.25	202.07
	 258	1	2	0.0	52.72	12.0	204.95
	 259	1	4	-1.0	55.69	11.06	207.15
	 260	1	9	1.0	57.68	13.08	204.62
	 261	1	8	0.0	55.6	16.23	205.24
	 262	1	15	1.0	56.57	15.97	208.92
	 263	1	10	0.0	60.25	15.39	208.07
	 264	1	17	0.0	60.36	18.49	205.84
	 265	1	10	0.0	58.53	20.23	208.7
	 266	1	4	-1.0	61.15	19.42	211.37
	 267	1	12	0.0	64.23	20.8	209.55
	 268	1	17	0.0	62.83	24.33	209.78
	 269	1	12	0.0	64.94	26.61	211.94
	 270	1	8	0.0	63.41	30.06	212.05
	 271	1	3	-1.0	66.12	32.38	213.41
	 272	1	4	-1.0	68.28	31.66	210.34
	 273	1	3	-1.0	65.21	31.96	208.14
	 274	1	8	0.0	64.29	35.61	208.59
	 275	1	17	0.0	68.07	36.17	208.46
	 276	1	14	0.0	68.12	34.63	204.99
	 277	1	11	0.0	64.93	36.59	204.24
	 278	1	8	0.0	66.41	39.9	205.44
	 279	1	14	0.0	69.23	39.78	202.9
	 280	1	12	0.0	66.61	39.63	200.09
	 281	1	4	-1.0	64.31	42.42	201.31
	 282	1	6	0.0	67.1	44.35	203.0
	 283	1	17	0.0	66.84	48.09	202.43
	 284	1	6	0.0	69.69	49.65	204.41
	 285	1	17	0.0	72.13	48.88	207.23
	 286	1	17	0.0	73.68	52.26	208.21
	 287	1	8	0.0	71.69	54.63	210.39
	 288	1	13	0.0	70.09	57.74	208.78
	 289	1	13	0.0	72.82	60.25	209.74
	 290	1	10	0.0	71.64	63.25	211.73
	 291	1	13	0.0	71.23	66.84	210.45
	 292	1	4	-1.0	74.29	68.99	211.17
	 293	1	5	0.0	74.34	72.79	210.98
	 294	1	12	0.0	76.17	73.95	207.87
	 295	1	3	-1.0	78.24	77.05	208.56
	 296	1	20	0.0	79.22	80.18	206.64
	 297	1	5	0.0	82.98	79.51	206.19
	 298	1	9	1.0	82.33	76.36	204.12
	 299	1	4	-1.0	83.84	78.11	201.06
	 300	1	12	0.0	85.34	81.4	202.26
	 301	1	6	0.0	82.97	83.6	200.18
	 302	1	10	0.0	83.0	84.61	196.45
	 303	1	12	0.0	80.15	85.71	194.31
	 304	1	20	0.0	79.37	83.0	191.8
	 305	1	3	-1.0	76.02	82.96	189.99
	 306	1	8	0.0	73.46	85.77	190.14
	 307	1	3	-1.0	70.68	84.61	187.76
	 308	1	14	0.0	66.91	84.69	188.57
	 309	1	10	0.0	63.23	83.71	188.39
	 310	1	8	0.0	60.03	82.74	186.57
	 311	1	16	0.0	56.28	83.32	185.69
	 312	1	9	1.0	55.02	79.91	186.73
	 313	1	1	0.0	51.42	80.86	185.94
	 314	1	13	0.0	48.15	78.82	185.77
	 315	1	16	0.0	44.57	79.94	186.7
	 316	1	20	0.0	41.23	81.48	187.73
	 317	1	13	0.0	38.72	82.25	190.59
	 318	1	20	0.0	36.38	83.9	193.1
	 319	1	16	0.0	32.98	84.4	191.25
	 320	1	16	0.0	29.32	84.16	190.43
	 321	1	16	0.0	27.47	86.84	188.49
	 322	1	15	1.0	25.47	89.26	186.25
	 323	1	13	0.0	21.71	88.72	185.69
	 324	1	16	0.0	19.61	91.13	183.57
	 325	1	1	0.0	16.38	92.41	181.94
	 326	1	16	0.0	12.6	92.97	182.07
	 327	1	1	0.0	11.12	95.13	179.27
	 328	1	16	0.0	7.64	95.44	177.81
	 329	1	10	0.0	5.81	97.02	174.81
	 330	1	1	0.0	4.03	98.03	171.58
	 331	1	16	0.0	0.56	97.74	170.28
	 332	1	16	0.0	-2.74	98.68	171.93
	 333	1	13	0.0	-4.68	101.18	169.86
	 334	1	17	0.0	-7.5	103.63	169.22
	 335	1	15	1.0	-10.21	103.51	166.54
	 336	1	16	0.0	-12.99	103.44	163.99
	 337	1	1	0.0	-16.21	102.75	165.85
	 338	1	5	0.0	-18.59	104.64	163.59
	 339	1	15	1.0	-19.67	107.74	161.62
	 340	1	13	0.0	-22.13	105.98	159.27
	 341	1	9	1.0	-20.97	104.31	156.1
	 342	1	17	0.0	-20.3	101.7	153.43
	 343	1	16	0.0	-23.22	99.94	151.69
	 344	1	4	-1.0	-25.97	99.16	149.23
	 345	1	17	0.0	-26.48	95.67	150.51
	 346	1	18	0.0	-27.87	92.29	149.36
	 347	1	16	0.0	-27.59	90.58	145.91
	 348	1	16	0.0	-27.88	87.48	143.66
	 349	1	4	-1.0	-29.1	87.53	140.08
	 350	1	18	0.0	-26.47	84.99	138.82
	 351	1	18	0.0	-25.49	84.9	135.2
	 352	1	16	0.0	-23.53	87.69	133.31
	 353	1	16	0.0	-24.4	91.33	133.97
	 354	1	13	0.0	-25.55	92.02	130.34
	 355	1	13	0.0	-26.09	95.75	129.83
	 356	1	17	0.0	-25.19	98.47	132.47
	 357	1	16	0.0	-26.29	101.14	135.06
	 358	1	13	0.0	-30.0	101.64	135.65
	 359	1	10	0.0	-32.35	104.32	134.41
	 360	1	7	0.5	-33.17	108.05	135.19
	 361	1	16	0.0	-33.96	109.04	138.76
	 362	1	13	0.0	-32.72	107.23	141.9
	 363	1	18	0.0	-30.33	104.39	140.78
	 364	1	9	1.0	-27.48	102.02	141.87
	 365	1	13	0.0	-23.84	101.14	142.71
	 366	1	18	0.0	-21.0	101.63	145.27
	 367	1	16	0.0	-20.6	105.48	145.74
	 368	1	12	0.0	-23.81	106.76	147.21
	 369	1	4	-1.0	-22.19	108.65	150.01
	 370	1	14	0.0	-18.45	109.0	150.97
	 371	1	18	0.0	-16.4	106.65	153.11
	 372	1	4	-1.0	-12.86	105.97	152.11
	 373	1	14	0.0	-12.61	102.54	150.52
	 374	1	18	0.0	-14.43	99.5	152.03
	 375	1	17	0.0	-15.43	96.06	153.31
	 376	1	4	-1.0	-16.83	94.9	156.8
	 377	1	18	0.0	-17.86	94.98	160.5
	 378	1	4	-1.0	-17.61	91.85	162.58
	 379	1	10	0.0	-18.0	89.37	165.43
	 380	1	16	0.0	-21.8	89.74	165.7
	 381	1	8	0.0	-23.97	86.98	164.15
	 382	1	13	0.0	-26.22	87.46	161.12
	 383	1	18	0.0	-28.89	90.11	160.29
	 384	1	13	0.0	-30.8	89.75	163.6
	 385	1	16	0.0	-33.83	87.34	163.6
	 386	1	8	0.0	-37.15	85.79	162.47
	 387	1	14	0.0	-38.73	84.47	165.62
	 388	1	4	-1.0	-41.22	86.45	167.77
	 389	1	1	0.0	-41.96	90.09	168.65
	 390	1	4	-1.0	-39.78	93.16	169.22
	 391	1	16	0.0	-39.09	92.05	165.63
	 392	1	14	0.0	-40.7	91.01	162.28
	 393	1	9	1.0	-37.86	91.88	159.93
	 394	1	13	0.0	-35.62	91.63	156.83
	 395	1	18	0.0	-33.12	92.86	154.19
	 396	1	10	0.0	-34.52	95.42	151.78
	 397	1	17	0.0	-32.27	98.25	150.53
	 398	1	6	0.0	-32.16	99.88	147.14
	 399	1	16	0.0	-30.57	103.32	147.68
	 400	1	16	0.0	-28.78	106.1	149.61
	 401	1	11	0.0	-30.97	109.17	149.15
	 402	1	15	1.0	-30.09	111.93	146.73
	 403	1	15	1.0	-31.4	113.78	143.63
	 404	1	13	0.0	-30.1	116.26	141.01
	 405	1	21	-2.0	-32.79	118.8	140.09
	 406	1	18	0.0	-35.61	118.61	137.35
	 407	1	17	0.0	-36.54	117.24	133.93
	 408	1	16	0.0	-37.32	113.77	135.33
	 409	1	13	0.0	-41.03	112.94	134.89
	 410	1	17	0.0	-41.24	111.17	138.34
	 411	1	5	0.0	-40.14	110.41	141.88
	 412	1	4	-1.0	-36.99	110.02	143.86
	 413	1	18	0.0	-38.31	107.89	146.77
	 414	1	1	0.0	-40.47	108.94	149.85
	 415	1	1	0.0	-42.81	111.17	147.8
	 416	1	15	1.0	-43.37	113.99	150.23
	 417	1	13	0.0	-43.46	115.99	153.51
	 418	1	10	0.0	-42.87	114.13	156.78
	 419	1	22	-2.0	-43.32	110.37	157.01
	 420	1	16	0.0	-43.83	107.24	159.28
	 421	1	11	0.0	-40.85	105.34	157.72
	 422	1	3	-1.0	-39.18	104.08	160.94
	 423	1	18	0.0	-39.47	100.36	161.71
	 424	1	15	1.0	-36.42	98.88	163.52
	 425	1	16	0.0	-34.29	100.99	161.06
	 426	1	16	0.0	-30.7	99.86	160.58
	 427	1	7	0.5	-29.77	99.74	156.88
	 428	1	12	0.0	-26.09	98.88	156.19
	 429	1	1	0.0	-24.68	95.45	156.41
	 430	1	4	-1.0	-22.97	92.34	155.24
	 431	1	17	0.0	-21.2	91.73	151.92
	 432	1	4	-1.0	-22.0	91.69	148.21
	 433	1	18	0.0	-21.01	94.06	145.43
	 434	1	14	0.0	-20.1	95.14	141.93
	 435	1	1	0.0	-23.15	93.19	140.85
	 436	1	8	0.0	-26.46	94.93	139.83
	 437	1	13	0.0	-29.66	95.11	137.73
	 438	1	1	0.0	-32.73	93.04	137.08
	 439	1	1	0.0	-34.77	93.47	133.93
	 440	1	17	0.0	-36.01	91.76	130.8
	 441	1	3	-1.0	-36.43	88.68	133.01
	 442	1	8	0.0	-34.22	86.38	135.12
	 443	1	16	0.0	-36.81	84.05	136.71
	 444	1	13	0.0	-36.14	81.22	139.08
	 445	1	4	-1.0	-35.6	78.79	136.18
	 446	1	18	0.0	-33.05	76.37	137.61
	 447	1	9	1.0	-29.45	77.37	137.9
	 448	1	4	-1.0	-28.59	76.28	134.29
	 449	1	6	0.0	-26.43	73.07	134.35
	 450	1	9	1.0	-23.33	70.85	134.54
	 451	1	12	0.0	-22.0	74.11	133.01
	 452	1	16	0.0	-19.18	74.73	130.61
	 453	1	4	-1.0	-15.76	73.22	131.29
	 454	1	12	0.0	-17.16	69.71	130.48
	 455	1	1	0.0	-16.0	67.19	127.8
	 456	1	8	0.0	-13.98	66.63	124.55
	 457	1	17	0.0	-13.14	63.09	123.42
	 458	1	9	1.0	-13.9	60.26	120.95
	 459	1	3	-1.0	-14.09	56.55	119.9
	 460	1	12	0.0	-11.74	55.77	116.91
	 461	1	3	-1.0	-10.32	55.0	113.52
	 462	1	3	-1.0	-9.72	52.25	111.03
	 463	1	8	0.0	-9.25	51.24	107.51
	 464	1	8	0.0	-12.43	51.91	105.48
	 465	1	10	0.0	-10.58	53.96	102.89
	 466	1	16	0.0	-10.23	54.46	99.07
	 467	1	16	0.0	-11.25	52.12	96.32
	 468	1	14	0.0	-10.61	52.78	92.61
	 469	1	10	0.0	-7.3	52.21	90.95
	 470	1	14	0.0	-3.96	50.3	91.07
	 471	1	13	0.0	-2.13	52.33	88.43
	 472	1	17	0.0	-1.7	50.82	84.99
	 473	1	1	0.0	-1.78	48.26	82.13
	 474	1	17	0.0	0.34	46.26	79.65
	 475	1	6	0.0	-0.5	47.81	76.28
	 476	1	16	0.0	2.21	46.62	73.9
	 477	1	15	1.0	5.64	45.75	72.68
	 478	1	16	0.0	6.47	46.02	68.97
	 479	1	16	0.0	4.52	45.33	65.79
	 480	1	15	1.0	3.43	41.73	65.18
	 481	1	10	0.0	4.26	41.58	61.43
	 482	1	16	0.0	5.43	38.75	59.2
	 483	1	5	0.0	5.92	35.69	57.02
	 484	1	16	0.0	7.34	32.19	56.52
	 485	1	15	1.0	10.36	30.46	54.82
	 486	1	7	0.5	12.54	33.11	53.23
	 487	1	6	0.0	12.8	33.59	49.4
	 488	1	7	0.5	12.66	32.64	45.78
	 489	1	6	0.0	14.3	30.9	42.9
	 490	1	21	-2.0	13.7	31.93	39.23
	 491	1	14	0.0	15.5	32.83	36.07
	 492	1	22	-2.0	16.88	33.23	32.59
	 493	1	16	0.0	16.38	31.04	29.63
	 494	1	10	0.0	16.12	28.94	26.53
	 495	1	6	0.0	15.28	27.35	23.01
	 496	1	16	0.0	16.86	27.33	19.65
	 497	1	8	0.0	18.84	28.16	16.59
	 498	1	9	1.0	20.04	29.04	13.0
	 499	1	15	1.0	19.09	27.01	9.88
	 500	1	9	1.0	20.09	25.19	6.7
	 501	1	16	0.0	22.85	24.73	4.14
	 502	1	8	0.0	23.76	24.03	0.52
	 503	1	11	0.0	26.14	23.6	-2.46
	 504	1	4	-1.0	27.09	24.16	-6.04
	 505	1	15	1.0	25.7	26.64	-8.46
	 506	1	11	0.0	22.44	26.54	-10.25
	 507	1	6	0.0	19.99	23.64	-10.16
	 508	1	15	1.0	17.2	21.41	-11.52
	 509	1	13	0.0	18.35	18.85	-14.18
	 510	1	17	0.0	18.3	15.13	-13.3
	 511	1	21	-2.0	18.06	11.76	-15.07
	 512	1	13	0.0	19.9	12.05	-18.38
	 513	1	5	0.0	19.11	12.75	-22.01
	 514	1	11	0.0	22.0	14.56	-23.72
	 515	1	6	0.0	22.12	17.26	-26.46
	 516	1	16	0.0	22.65	16.03	-30.02
	 517	1	16	0.0	20.62	19.1	-31.05
	 518	1	5	0.0	18.33	21.48	-32.81
	 519	1	16	0.0	15.84	20.88	-35.47
	 520	1	12	0.0	14.79	22.11	-38.89
	 521	1	11	0.0	12.21	24.83	-38.31
	 522	1	6	0.0	8.78	25.26	-36.73
	 523	1	16	0.0	5.48	23.4	-36.75
	 524	1	15	1.0	1.72	23.44	-35.86
	 525	1	16	0.0	-1.63	24.44	-34.31
	 526	1	17	0.0	-4.64	24.91	-31.96
	 527	1	21	-2.0	-6.9	21.82	-31.62
	 528	1	13	0.0	-10.61	21.27	-31.38
	 529	1	17	0.0	-12.9	19.7	-33.96
	 530	1	9	1.0	-12.47	18.99	-37.67
	 531	1	4	-1.0	-15.03	19.3	-40.61
	 532	1	6	0.0	-15.41	18.77	-44.32
	 533	1	5	0.0	-16.84	20.1	-47.58
	 534	1	1	0.0	-20.51	20.16	-46.89
	 535	1	16	0.0	-22.97	18.24	-44.7
	 536	1	12	0.0	-26.09	16.81	-43.0
	 537	1	14	0.0	-29.49	18.24	-43.85
	 538	1	7	0.5	-32.33	20.1	-45.62
	 539	1	1	0.0	-34.93	17.31	-45.56
	 540	1	17	0.0	-37.42	14.58	-44.62
	 541	1	6	0.0	-40.63	13.35	-46.22
	 542	1	1	0.0	-39.88	10.06	-48.19
	 543	1	16	0.0	-40.97	9.14	-51.77
	 544	1	18	0.0	-41.09	5.32	-52.57
	 545	1	14	0.0	-38.05	4.02	-54.5
	 546	1	16	0.0	-36.5	0.66	-55.3
	 547	1	3	-1.0	-38.65	-0.54	-58.16
	 548	1	4	-1.0	-42.08	0.9	-57.6
	 549	1	10	0.0	-44.33	-0.31	-60.37
	 550	1	4	-1.0	-48.02	-0.08	-61.39
	 551	1	3	-1.0	-49.42	1.25	-64.72
	 552	1	8	0.0	-51.15	-0.2	-67.72
	 553	1	3	-1.0	-49.83	-0.4	-71.27
	 554	1	13	0.0	-50.76	-3.77	-72.66
	 555	1	15	1.0	-48.67	-4.38	-75.78
	 556	1	1	0.0	-48.96	-0.93	-77.38
	 557	1	12	0.0	-46.65	0.18	-80.19
	 558	1	18	0.0	-48.42	-1.69	-82.89
	 559	1	18	0.0	-51.35	-2.69	-85.12
	 560	1	10	0.0	-51.77	-5.78	-87.19
	 561	1	12	0.0	-50.04	-5.8	-90.59
	 562	1	18	0.0	-52.13	-5.87	-93.85
	 563	1	6	0.0	-53.36	-2.26	-94.13
	 564	1	13	0.0	-57.09	-1.78	-93.89
	 565	1	12	0.0	-57.62	-0.86	-97.52
	 566	1	11	0.0	-59.66	2.37	-97.56
	 567	1	10	0.0	-61.37	5.33	-99.36
	 568	1	16	0.0	-63.8	6.36	-102.15
	 569	1	18	0.0	-65.01	6.74	-105.8
	 570	1	6	0.0	-68.27	4.82	-106.18
	 571	1	4	-1.0	-70.32	3.37	-108.91
	 572	1	1	0.0	-72.73	5.29	-111.21
	 573	1	13	0.0	-76.21	4.39	-110.08
	 574	1	18	0.0	-78.3	4.57	-113.25
	 575	1	4	-1.0	-81.34	5.83	-115.26
	 576	1	16	0.0	-84.76	5.86	-116.85
	 577	1	17	0.0	-87.31	8.6	-115.97
	 578	1	16	0.0	-88.17	10.04	-119.32
	 579	1	9	1.0	-90.47	7.74	-121.36
	 580	1	4	-1.0	-93.98	7.62	-119.83
	 581	1	4	-1.0	-96.71	5.27	-120.98
	 582	1	3	-1.0	-94.58	2.18	-120.5
	 583	1	9	1.0	-93.61	-1.33	-121.47
	 584	1	3	-1.0	-92.65	-1.74	-125.1
	 585	1	18	0.0	-90.76	-2.78	-128.17
	 586	1	13	0.0	-92.48	-5.46	-130.18
	 587	1	3	-1.0	-95.84	-3.79	-130.89
	 588	1	13	0.0	-95.95	-0.59	-132.83
	 589	1	8	0.0	-96.53	2.14	-130.19
	 590	1	1	0.0	-98.75	4.88	-131.61
	 591	1	12	0.0	-99.69	7.95	-133.77
	 592	1	1	0.0	-100.89	9.75	-136.99
	 593	1	11	0.0	-101.22	7.4	-139.97
	 594	1	1	0.0	-98.18	5.22	-140.64
	 595	1	4	-1.0	-96.18	2.14	-141.59
	 596	1	10	0.0	-93.91	-0.75	-142.28
	 597	1	16	0.0	-92.4	-0.94	-138.77
	 598	1	16	0.0	-88.65	-1.06	-138.17
	 599	1	16	0.0	-85.17	-1.96	-139.44
	 600	1	11	0.0	-85.01	-5.02	-137.11
	 601	1	15	1.0	-86.06	-4.05	-133.58
	 602	1	15	1.0	-84.79	-6.91	-131.42
	 603	1	15	1.0	-85.73	-10.57	-132.0
	 604	1	14	0.0	-84.32	-11.65	-135.42
	 605	1	21	-2.0	-82.04	-11.98	-138.55
	 606	1	17	0.0	-79.08	-13.07	-140.6
	 607	1	16	0.0	-81.29	-12.14	-143.58
	 608	1	18	0.0	-79.29	-10.49	-146.29
	 609	1	3	-1.0	-79.08	-6.86	-147.56
	 610	1	3	-1.0	-82.17	-4.98	-146.6
	 611	1	4	-1.0	-85.29	-5.63	-148.75
	 612	1	1	0.0	-84.95	-9.32	-149.51
	 613	1	13	0.0	-86.23	-12.79	-150.21
	 614	1	18	0.0	-87.65	-16.42	-150.31
	 615	1	16	0.0	-84.27	-18.12	-149.76
	 616	1	10	0.0	-82.15	-21.16	-148.69
	 617	1	16	0.0	-78.48	-22.2	-148.34
	 618	1	9	1.0	-76.9	-19.67	-150.76
	 619	1	17	0.0	-74.41	-16.83	-151.41
	 620	1	16	0.0	-75.73	-13.41	-152.4
	 621	1	16	0.0	-72.99	-10.79	-153.11
	 622	1	16	0.0	-71.87	-10.8	-149.44
	 623	1	17	0.0	-69.93	-12.46	-146.55
	 624	1	15	1.0	-69.84	-10.34	-143.36
	 625	1	10	0.0	-73.05	-10.49	-141.33
	 626	1	12	0.0	-74.77	-7.95	-143.62
	 627	1	6	0.0	-77.02	-5.43	-141.95
	 628	1	10	0.0	-76.52	-3.32	-138.74
	 629	1	6	0.0	-77.31	-1.77	-135.42
	 630	1	20	0.0	-79.59	-0.02	-132.96
	 631	1	7	0.5	-76.9	-0.69	-130.48
	 632	1	16	0.0	-75.35	-4.23	-130.59
	 633	1	15	1.0	-74.29	-7.22	-128.56
	 634	1	12	0.0	-71.57	-9.65	-127.34
	 635	1	22	-2.0	-72.51	-10.64	-123.71
	 636	1	21	-2.0	-76.26	-10.06	-123.29
	 637	1	8	0.0	-79.55	-8.12	-123.2
	 638	1	1	0.0	-78.33	-4.72	-122.18
	 639	1	16	0.0	-80.71	-1.89	-121.34
	 640	1	3	-1.0	-83.17	-2.51	-124.24
	 641	1	8	0.0	-85.24	-1.29	-127.15
	 642	1	3	-1.0	-84.5	1.7	-129.41
	 643	1	6	0.0	-83.2	5.25	-128.84
	 644	1	18	0.0	-80.1	7.26	-129.72
	 645	1	13	0.0	-80.92	6.86	-133.4
	 646	1	9	1.0	-81.75	4.8	-136.44
	 647	1	9	1.0	-81.88	7.52	-139.15
	 648	1	16	0.0	-82.99	6.16	-142.46
	 649	1	17	0.0	-86.33	5.23	-144.07
	 650	1	10	0.0	-89.9	6.4	-143.44
	 651	1	6	0.0	-93.29	7.93	-142.6
	 652	1	1	0.0	-96.0	9.73	-140.52
	 653	1	13	0.0	-94.43	12.69	-138.62
	 654	1	13	0.0	-91.83	10.44	-137.06
	 655	1	1	0.0	-92.63	8.71	-133.74
	 656	1	1	0.0	-93.01	4.97	-133.13
	 657	1	7	0.5	-89.53	3.87	-134.07
	 658	1	17	0.0	-87.33	6.81	-135.01
	 659	1	16	0.0	-87.84	8.71	-131.61
	 660	1	1	0.0	-86.06	10.36	-128.65
	 661	1	14	0.0	-86.94	12.94	-126.07
	 662	1	11	0.0	-89.51	15.69	-126.48
	 663	1	14	0.0	-92.66	14.5	-128.28
	 664	1	15	1.0	-94.56	11.35	-127.54
	 665	1	11	0.0	-97.64	10.79	-129.57
	 666	1	21	-2.0	-99.55	13.89	-130.78
	 667	1	12	0.0	-103.19	14.88	-131.22
	 668	1	21	-2.0	-104.35	16.56	-134.42
	 669	1	5	0.0	-103.61	20.23	-133.91
	 670	1	1	0.0	-103.38	20.04	-130.06
	 671	1	16	0.0	-100.62	22.5	-129.63
	 672	1	14	0.0	-97.35	20.57	-130.01
	 673	1	17	0.0	-94.42	18.83	-131.84
	 674	1	9	1.0	-91.15	19.14	-133.76
	 675	1	14	0.0	-87.8	19.8	-135.42
	 676	1	18	0.0	-86.52	17.44	-138.21
	 677	1	5	0.0	-86.9	13.65	-138.66
	 678	1	6	0.0	-85.71	13.62	-135.07
	 679	1	4	-1.0	-84.6	15.36	-131.88
	 680	1	14	0.0	-83.41	18.69	-130.52
	 681	1	15	1.0	-80.35	19.76	-132.48
	 682	1	17	0.0	-80.0	17.11	-135.22
	 683	1	4	-1.0	-78.1	14.2	-133.64
	 684	1	12	0.0	-75.9	15.13	-130.7
	 685	1	16	0.0	-73.06	17.23	-132.22
	 686	1	1	0.0	-69.36	16.12	-132.0
	 687	1	15	1.0	-65.7	15.66	-131.24
	 688	1	4	-1.0	-65.46	12.4	-133.15
	 689	1	16	0.0	-65.44	8.6	-133.75
	 690	1	10	0.0	-63.11	5.69	-134.12
	 691	1	15	1.0	-62.85	5.44	-137.92
	 692	1	7	0.5	-59.17	4.87	-138.89
	 693	1	21	-2.0	-56.04	4.83	-136.7
	 694	1	15	1.0	-56.07	6.31	-133.18
	 695	1	16	0.0	-58.6	9.09	-132.94
	 696	1	12	0.0	-61.45	9.81	-130.42
	 697	1	11	0.0	-63.96	9.45	-127.67
	 698	1	16	0.0	-66.34	9.15	-124.66
	 699	1	15	1.0	-67.79	10.87	-121.51
	 700	1	16	0.0	-65.18	13.2	-120.11
	 701	1	13	0.0	-62.28	15.61	-120.78
	 702	1	21	-2.0	-59.85	13.48	-118.88
	 703	1	13	0.0	-60.39	10.53	-116.48
	 704	1	11	0.0	-57.86	9.86	-113.77
	 705	1	10	0.0	-54.91	10.91	-111.54
	 706	1	16	0.0	-54.62	14.58	-112.59
	 707	1	15	1.0	-51.07	15.79	-112.6
	 708	1	15	1.0	-49.22	14.01	-109.75
	 709	1	16	0.0	-47.77	10.9	-111.43
	 710	1	21	-2.0	-49.53	8.46	-109.09
	 711	1	17	0.0	-47.33	8.57	-106.03
	 712	1	10	0.0	-44.97	8.66	-103.05
	 713	1	15	1.0	-44.42	12.43	-102.59
	 714	1	13	0.0	-45.44	14.9	-99.91
	 715	1	16	0.0	-45.29	16.72	-96.52
	 716	1	5	0.0	-46.71	18.04	-93.27
	 717	1	4	-1.0	-45.37	21.5	-94.21
	 718	1	15	1.0	-44.11	25.0	-95.05
	 719	1	21	-2.0	-45.91	27.25	-92.69
	 720	1	1	0.0	-44.41	28.76	-89.52
	 721	1	21	-2.0	-46.75	27.19	-86.91
	 722	1	16	0.0	-45.8	27.47	-83.26
	 723	1	10	0.0	-45.18	25.95	-79.76
	 724	1	21	-2.0	-44.23	27.31	-76.39
	 725	1	18	0.0	-42.73	25.04	-73.82
	 726	1	15	1.0	-40.99	24.42	-70.37
	 727	1	14	0.0	-38.57	27.15	-69.04
	 728	1	16	0.0	-37.89	26.08	-65.41
	 729	1	3	-1.0	-36.52	22.74	-64.26
	 730	1	18	0.0	-34.44	24.65	-61.87
	 731	1	18	0.0	-32.53	26.91	-59.43
	 732	1	21	-2.0	-31.03	24.92	-56.64
	 733	1	13	0.0	-30.96	21.03	-56.55
	 734	1	1	0.0	-27.29	21.93	-56.61
	 735	1	13	0.0	-23.45	22.07	-56.72
	 736	1	16	0.0	-22.76	18.74	-54.82
	 737	1	17	0.0	-19.4	17.05	-54.59
	 738	1	15	1.0	-17.21	14.58	-52.85
	 739	1	1	0.0	-14.1	12.56	-53.61
	 740	1	15	1.0	-11.65	11.72	-50.81
	 741	1	6	0.0	-11.91	9.98	-47.52
	 742	1	14	0.0	-8.51	8.93	-46.18
	 743	1	21	-2.0	-6.74	11.07	-43.62
	 744	1	18	0.0	-4.07	11.06	-40.85
	 745	1	16	0.0	-3.96	9.69	-37.3
	 746	1	6	0.0	-0.67	9.54	-35.47
	 747	1	14	0.0	2.61	10.43	-33.78
	 748	1	14	0.0	6.12	9.87	-32.5
	 749	1	15	1.0	8.16	11.38	-29.63
	 750	1	13	0.0	9.01	14.43	-27.54
	 751	1	16	0.0	12.27	16.36	-28.07
	 752	1	21	-2.0	14.58	19.01	-29.34
	 753	1	16	0.0	13.98	21.87	-26.83
	 754	1	11	0.0	16.12	24.82	-25.61
	 755	1	16	0.0	19.16	23.19	-24.08
	 756	1	10	0.0	22.08	22.83	-21.79
	 757	1	20	0.0	25.83	22.7	-21.41
	 758	1	6	0.0	25.01	20.74	-18.27
	 759	1	4	-1.0	25.98	20.16	-14.64
	 760	1	20	0.0	25.21	18.41	-11.33
	 761	1	12	0.0	23.59	19.36	-8.01
	 762	1	9	1.0	21.15	20.63	-5.33
	 763	1	21	-2.0	18.81	23.53	-5.32
	 764	1	14	0.0	18.84	27.07	-3.94
	 765	1	13	0.0	22.12	28.63	-2.77
	 766	1	14	0.0	24.2	31.23	-0.94
	 767	1	10	0.0	26.86	29.84	1.36
	 768	1	16	0.0	29.63	31.69	3.14
	 769	1	11	0.0	31.11	34.95	4.5
	 770	1	14	0.0	32.93	36.28	7.56
	 771	1	15	1.0	34.69	39.46	6.53
	 772	1	16	0.0	34.51	42.95	8.02
	 773	1	18	0.0	35.64	46.38	6.79
	 774	1	21	-2.0	38.95	45.41	5.3
	 775	1	13	0.0	41.48	46.3	7.97
	 776	1	12	0.0	39.54	45.18	10.98
	 777	1	13	0.0	37.16	45.99	13.76
	 778	1	10	0.0	39.04	48.52	15.88
	 779	1	6	0.0	36.44	48.95	18.68
	 780	1	13	0.0	33.21	49.64	20.57
	 781	1	12	0.0	32.36	51.04	24.05
	 782	1	15	1.0	29.09	52.81	22.86
	 783	1	15	1.0	26.23	50.74	24.31
	 784	1	16	0.0	26.82	49.2	27.82
	 785	1	21	-2.0	24.36	46.34	27.84
	 786	1	21	-2.0	24.51	46.87	31.51
	 787	1	18	0.0	22.78	47.06	34.86
	 788	1	10	0.0	19.03	47.04	35.55
	 789	1	14	0.0	17.35	46.46	38.82
	 790	1	16	0.0	14.81	48.77	40.45
	 791	1	14	0.0	13.49	50.32	43.75
	 792	1	9	1.0	10.65	51.59	45.9
	 793	1	16	0.0	7.13	51.63	47.27
	 794	1	17	0.0	4.16	53.58	48.55
	 795	1	16	0.0	1.82	55.17	51.06
	 796	1	16	0.0	2.77	58.74	51.98
	 797	1	12	0.0	4.83	57.3	54.81
	 798	1	17	0.0	2.65	57.45	57.94
	 799	1	16	0.0	0.34	55.52	60.37
	 800	1	12	0.0	1.36	54.86	63.97
	 801	1	15	1.0	-0.44	57.0	66.57
	 802	1	12	0.0	-3.01	59.35	68.08
	 803	1	12	0.0	-5.93	58.58	70.3
	 804	1	6	0.0	-5.65	57.5	73.92
	 805	1	6	0.0	-7.73	54.62	72.39
	 806	1	20	0.0	-10.93	55.28	74.35
	 807	1	16	0.0	-12.01	52.34	76.5
	 808	1	6	0.0	-15.72	51.26	76.59
	 809	1	16	0.0	-17.13	54.72	76.64
	 810	1	15	1.0	-20.27	55.98	78.46
	 811	1	13	0.0	-23.61	56.77	76.65
	 812	1	16	0.0	-27.1	55.68	75.62
	 813	1	21	-2.0	-30.17	53.97	74.24
	 814	1	4	-1.0	-30.5	51.32	76.87
	 815	1	11	0.0	-32.81	52.98	79.36
	 816	1	6	0.0	-35.23	50.7	81.15
	 817	1	7	0.5	-36.38	51.12	84.78
	 818	1	15	1.0	-35.92	51.74	88.56
	 819	1	20	0.0	-35.25	52.42	92.24
	 820	1	6	0.0	-38.22	51.73	94.44
	 821	1	21	-2.0	-41.23	49.51	95.21
	 822	1	11	0.0	-41.14	48.98	98.93
	 823	1	16	0.0	-42.95	46.84	101.48
	 824	1	6	0.0	-45.66	46.49	104.05
	 825	1	15	1.0	-46.6	43.06	105.55
	 826	1	16	0.0	-44.4	42.13	108.46
	 827	1	11	0.0	-43.66	41.57	112.2
	 828	1	15	1.0	-43.71	41.45	115.99
	 829	1	14	0.0	-42.3	42.03	119.49
	 830	1	18	0.0	-41.97	40.59	123.06
	 831	1	21	-2.0	-38.58	39.08	123.61
	 832	1	14	0.0	-37.81	35.82	125.41
	 833	1	15	1.0	-40.26	33.08	126.34
	 834	1	16	0.0	-41.32	32.32	129.92
	 835	1	17	0.0	-42.42	28.7	129.7
	 836	1	21	-2.0	-40.96	26.25	132.21
	 837	1	15	1.0	-40.82	22.91	134.16
	 838	1	1	0.0	-43.01	22.59	137.18
	 839	1	15	1.0	-44.79	20.08	139.52
	 840	1	21	-2.0	-48.03	17.99	139.86
	 841	1	13	0.0	-48.51	14.79	141.86
	 842	1	4	-1.0	-49.74	15.67	145.37
	 843	1	13	0.0	-51.91	16.33	148.43
	 844	1	17	0.0	-53.81	18.09	151.22
	 845	1	12	0.0	-52.07	16.4	154.15
	 846	1	15	1.0	-53.71	12.96	153.44
	 847	1	12	0.0	-52.5	9.44	154.18
	 848	1	21	-2.0	-49.28	9.59	156.33
	 849	1	18	0.0	-48.51	7.06	159.0
	 850	1	14	0.0	-50.93	8.56	161.49
	 851	1	16	0.0	-49.27	10.29	164.52
	 852	1	9	1.0	-50.39	12.71	167.17
	 853	1	12	0.0	-48.54	10.9	169.89
	 854	1	18	0.0	-47.62	10.4	173.57
	 855	1	3	-1.0	-44.04	11.43	172.81
	 856	1	13	0.0	-40.99	9.3	172.88
	 857	1	15	1.0	-42.64	5.96	173.89
	 858	1	1	0.0	-43.73	5.22	170.31
	 859	1	17	0.0	-44.24	2.64	167.47
	 860	1	5	0.0	-41.26	0.96	165.84
	 861	1	17	0.0	-38.67	-1.8	166.41
	 862	1	1	0.0	-34.97	-2.66	166.27
	 863	1	4	-1.0	-34.43	-3.3	170.0
	 864	1	6	0.0	-33.98	0.46	169.38
	 865	1	4	-1.0	-34.01	3.89	170.98
	 866	1	13	0.0	-37.55	3.04	172.17
	 867	1	8	0.0	-40.13	0.61	173.71
	 868	1	10	0.0	-38.88	0.88	177.39