LAMMPS data file via pdbToData.py

528 atoms
23 atom types
527 bonds
1 bond types

-250.0 250.0 xlo xhi
-250.0 250.0 ylo yhi
-250.0 250.0 zlo zhi

Masses

1 71.08
2 103.1
3 115.1
4 129.1
5 147.2
6 57.05
7 137.1
8 113.2
9 128.2
10 113.2
11 131.2
12 114.1
13 97.12
14 128.1
15 156.2
16 87.08
17 101.1
18 99.07
19 186.2
20 163.2
21 165.03
22 179.05
23 241.15

Atoms

	   1	1	1	0.0	-164.94	-99.72	2392.36
	   2	1	16	0.0	-164.91	-96.61	2394.5
	   3	1	10	0.0	-165.29	-94.18	2397.33
	   4	1	1	0.0	-161.77	-92.43	2397.81
	   5	1	16	0.0	-158.11	-91.29	2397.6
	   6	1	16	0.0	-155.18	-93.65	2398.1
	   7	1	13	0.0	-152.26	-91.75	2396.36
	   8	1	17	0.0	-148.99	-90.13	2394.96
	   9	1	15	1.0	-146.97	-87.52	2396.72
	  10	1	16	0.0	-147.46	-84.2	2394.77
	  11	1	1	0.0	-146.84	-84.13	2391.03
	  12	1	5	0.0	-150.15	-85.96	2390.17
	  13	1	15	1.0	-153.2	-84.17	2391.56
	  14	1	13	0.0	-155.31	-86.18	2394.08
	  15	1	9	1.0	-158.89	-86.07	2392.89
	  16	1	17	0.0	-159.02	-83.46	2395.67
	  17	1	16	0.0	-159.36	-85.71	2398.61
	  18	1	4	-1.0	-161.62	-84.92	2401.55
	  19	1	17	0.0	-163.0	-84.46	2405.14
	  20	1	18	0.0	-165.84	-81.77	2404.87
	  21	1	16	0.0	-168.63	-80.81	2402.41
	  22	1	16	0.0	-171.27	-79.02	2404.47
	  23	1	4	-1.0	-174.98	-78.64	2403.62
	  24	1	18	0.0	-175.29	-82.21	2402.45
	  25	1	18	0.0	-173.81	-85.47	2403.58
	  26	1	16	0.0	-170.3	-85.82	2405.05
	  27	1	16	0.0	-168.03	-88.44	2406.47
	  28	1	13	0.0	-169.93	-91.47	2405.35
	  29	1	13	0.0	-169.32	-93.43	2408.56
	  30	1	17	0.0	-172.44	-94.38	2410.5
	  31	1	16	0.0	-171.02	-91.9	2413.02
	  32	1	13	0.0	-173.96	-90.35	2414.89
	  33	1	10	0.0	-173.43	-86.8	2416.27
	  34	1	7	0.5	-169.79	-86.22	2415.65
	  35	1	16	0.0	-169.81	-82.64	2414.34
	  36	1	13	0.0	-172.27	-82.56	2411.44
	  37	1	18	0.0	-175.54	-84.05	2410.0
	  38	1	9	1.0	-178.5	-85.21	2412.17
	  39	1	13	0.0	-181.21	-86.87	2414.29
	  40	1	18	0.0	-182.59	-90.42	2415.06
	  41	1	16	0.0	-184.86	-90.33	2412.03
	  42	1	12	0.0	-184.31	-87.58	2409.42
	  43	1	4	-1.0	-184.91	-88.55	2405.73
	  44	1	14	0.0	-187.66	-90.97	2404.46
	  45	1	18	0.0	-191.31	-90.83	2403.61
	  46	1	4	-1.0	-191.58	-87.15	2402.81
	  47	1	14	0.0	-192.55	-84.74	2399.98
	  48	1	18	0.0	-192.46	-84.51	2396.2
	  49	1	17	0.0	-193.43	-86.09	2392.78
	  50	1	4	-1.0	-196.17	-87.98	2390.77
	  51	1	18	0.0	-198.47	-90.81	2389.81
	  52	1	4	-1.0	-201.24	-91.99	2387.52
	  53	1	10	0.0	-198.92	-94.06	2385.34
	  54	1	16	0.0	-195.88	-94.35	2387.69
	  55	1	8	0.0	-192.58	-92.51	2387.04
	  56	1	13	0.0	-190.59	-95.62	2386.46
	  57	1	18	0.0	-190.24	-98.88	2384.46
	  58	1	13	0.0	-190.9	-97.56	2380.95
	  59	1	16	0.0	-190.16	-93.92	2381.84
	  60	1	8	0.0	-186.81	-92.28	2381.78
	  61	1	14	0.0	-186.6	-89.65	2379.07
	  62	1	4	-1.0	-185.05	-87.8	2376.11
	  63	1	1	0.0	-181.46	-86.91	2377.12
	  64	1	4	-1.0	-179.7	-89.54	2375.03
	  65	1	16	0.0	-179.41	-93.13	2374.19
	  66	1	14	0.0	-178.34	-96.24	2372.3
	  67	1	9	1.0	-178.21	-98.56	2369.34
	  68	1	13	0.0	-179.94	-99.86	2366.17
	  69	1	18	0.0	-182.87	-99.23	2363.76
	  70	1	10	0.0	-184.36	-95.77	2364.8
	  71	1	17	0.0	-185.62	-92.48	2363.23
	  72	1	6	0.0	-186.63	-91.68	2359.65
	  73	1	16	0.0	-186.31	-89.46	2356.64
	  74	1	16	0.0	-183.64	-87.13	2358.09
	  75	1	11	0.0	-181.47	-89.88	2359.53
	  76	1	15	1.0	-178.67	-92.28	2360.32
	  77	1	15	1.0	-177.57	-92.43	2364.06
	  78	1	13	0.0	-175.1	-92.34	2366.91
	  79	1	21	-2.0	-172.87	-89.3	2366.4
	  80	1	18	0.0	-172.85	-87.59	2369.86
	  81	1	17	0.0	-169.69	-86.29	2371.57
	  82	1	16	0.0	-166.52	-84.85	2369.9
	  83	1	13	0.0	-165.68	-81.71	2371.85
	  84	1	17	0.0	-164.42	-78.46	2370.27
	  85	1	5	0.0	-161.55	-78.32	2372.75
	  86	1	4	-1.0	-159.95	-78.63	2376.18
	  87	1	18	0.0	-158.09	-81.87	2376.64
	  88	1	1	0.0	-156.97	-82.97	2373.22
	  89	1	1	0.0	-154.32	-80.34	2372.08
	  90	1	15	1.0	-152.23	-77.11	2372.22
	  91	1	13	0.0	-153.32	-76.07	2368.79
	  92	1	10	0.0	-151.86	-73.47	2366.36
	  93	1	22	-2.0	-151.94	-69.72	2365.82
	  94	1	16	0.0	-153.98	-68.74	2362.73
	  95	1	11	0.0	-154.24	-71.02	2359.74
	  96	1	3	-1.0	-158.1	-71.12	2359.32
	  97	1	18	0.0	-159.0	-71.23	2355.53
	  98	1	15	1.0	-156.66	-69.38	2353.2
	  99	1	16	0.0	-154.45	-66.49	2353.8
	 100	1	16	0.0	-151.29	-64.43	2353.54
	 101	1	7	0.5	-148.76	-64.88	2356.34
	 102	1	12	0.0	-148.71	-68.33	2357.91
	 103	1	1	0.0	-145.24	-69.6	2357.45
	 104	1	4	-1.0	-141.65	-69.38	2358.43
	 105	1	17	0.0	-141.49	-66.01	2356.86
	 106	1	4	-1.0	-138.81	-63.53	2357.79
	 107	1	18	0.0	-138.34	-59.82	2357.85
	 108	1	14	0.0	-139.18	-58.18	2354.55
	 109	1	1	0.0	-137.87	-55.62	2352.02
	 110	1	8	0.0	-138.54	-53.99	2348.67
	 111	1	13	0.0	-136.04	-51.14	2348.3
	 112	1	1	0.0	-134.22	-48.34	2350.18
	 113	1	1	0.0	-131.61	-47.45	2347.58
	 114	1	17	0.0	-134.07	-46.82	2344.75
	 115	1	3	-1.0	-133.75	-47.78	2341.09
	 116	1	8	0.0	-130.12	-46.95	2340.26
	 117	1	16	0.0	-127.29	-49.51	2339.92
	 118	1	13	0.0	-128.14	-50.9	2343.3
	 119	1	4	-1.0	-128.68	-54.6	2343.82
	 120	1	18	0.0	-128.65	-57.12	2340.9
	 121	1	9	1.0	-131.1	-60.0	2340.62
	 122	1	4	-1.0	-130.13	-63.77	2340.71
	 123	1	6	0.0	-127.38	-66.16	2339.67
	 124	1	9	1.0	-124.4	-65.14	2337.51
	 125	1	12	0.0	-123.29	-64.34	2333.93
	 126	1	16	0.0	-123.73	-65.67	2330.42
	 127	1	4	-1.0	-122.46	-67.83	2327.51
	 128	1	12	0.0	-121.11	-65.38	2324.91
	 129	1	1	0.0	-117.46	-64.49	2324.17
	 130	1	8	0.0	-114.87	-61.82	2324.95
	 131	1	17	0.0	-114.71	-58.22	2326.02
	 132	1	9	1.0	-113.78	-55.4	2323.63
	 133	1	3	-1.0	-117.2	-54.65	2322.27
	 134	1	12	0.0	-120.31	-54.51	2324.53
	 135	1	3	-1.0	-118.2	-52.23	2326.74
	 136	1	3	-1.0	-121.06	-50.02	2327.77
	 137	1	8	0.0	-122.55	-48.54	2324.57
	 138	1	8	0.0	-125.17	-45.84	2324.92
	 139	1	10	0.0	-125.41	-42.55	2326.82
	 140	1	16	0.0	-127.15	-44.11	2329.88
	 141	1	16	0.0	-128.11	-41.76	2332.74
	 142	1	14	0.0	-126.15	-43.34	2335.62
	 143	1	10	0.0	-125.4	-46.75	2334.07
	 144	1	14	0.0	-126.24	-50.26	2332.77
	 145	1	13	0.0	-129.82	-51.06	2331.9
	 146	1	17	0.0	-132.56	-48.58	2332.91
	 147	1	1	0.0	-132.8	-46.41	2329.83
	 148	1	17	0.0	-135.09	-47.87	2327.11
	 149	1	6	0.0	-132.5	-50.5	2326.49
	 150	1	16	0.0	-133.0	-54.3	2326.39
	 151	1	15	1.0	-133.6	-58.07	2326.15
	 152	1	16	0.0	-135.18	-61.59	2325.26
	 153	1	16	0.0	-135.66	-63.63	2328.51
	 154	1	15	1.0	-134.17	-62.7	2331.94
	 155	1	10	0.0	-133.34	-63.12	2335.7
	 156	1	16	0.0	-135.57	-63.96	2338.77
	 157	1	5	0.0	-139.19	-65.05	2339.03
	 158	1	16	0.0	-142.23	-66.82	2340.45
	 159	1	15	1.0	-142.63	-70.31	2338.96
	 160	1	7	0.5	-141.96	-72.64	2341.94
	 161	1	6	0.0	-143.48	-76.06	2342.66
	 162	1	7	0.5	-144.26	-77.54	2346.12
	 163	1	6	0.0	-145.03	-80.93	2344.65
	 164	1	16	0.0	-141.81	-82.71	2343.85
	 165	1	14	0.0	-141.78	-82.0	2340.04
	 166	1	22	-2.0	-138.19	-80.94	2339.06
	 167	1	16	0.0	-135.86	-80.69	2335.97
	 168	1	10	0.0	-135.7	-84.2	2334.44
	 169	1	6	0.0	-132.24	-82.98	2333.61
	 170	1	16	0.0	-129.29	-81.55	2331.61
	 171	1	8	0.0	-127.58	-82.5	2334.82
	 172	1	9	1.0	-125.29	-82.39	2338.01
	 173	1	15	1.0	-122.86	-79.6	2338.89
	 174	1	9	1.0	-120.25	-76.97	2339.9
	 175	1	16	0.0	-118.94	-75.52	2343.26
	 176	1	8	0.0	-115.21	-75.07	2342.39
	 177	1	11	0.0	-114.07	-78.23	2340.67
	 178	1	4	-1.0	-111.1	-79.92	2339.08
	 179	1	15	1.0	-107.69	-80.12	2340.75
	 180	1	11	0.0	-106.48	-82.3	2343.68
	 181	1	6	0.0	-103.39	-84.49	2343.82
	 182	1	15	1.0	-99.98	-83.44	2345.15
	 183	1	13	0.0	-100.96	-84.46	2348.72
	 184	1	17	0.0	-100.44	-87.44	2351.04
	 185	1	21	-2.0	-97.88	-90.26	2350.94
	 186	1	13	0.0	-98.66	-93.89	2351.89
	 187	1	5	0.0	-95.48	-95.8	2352.76
	 188	1	11	0.0	-95.08	-97.56	2349.47
	 189	1	6	0.0	-91.38	-98.05	2350.23
	 190	1	16	0.0	-91.33	-101.76	2351.21
	 191	1	16	0.0	-89.26	-104.91	2351.83
	 192	1	5	0.0	-89.54	-106.91	2348.54
	 193	1	16	0.0	-90.54	-104.04	2346.2
	 194	1	12	0.0	-93.58	-104.91	2344.09
	 195	1	11	0.0	-96.96	-103.9	2342.56
	 196	1	6	0.0	-99.1	-106.06	2340.21
	 197	1	16	0.0	-100.38	-108.69	2337.73
	 198	1	15	1.0	-99.08	-107.17	2334.46
	 199	1	16	0.0	-96.17	-106.74	2332.05
	 200	1	17	0.0	-94.04	-108.51	2329.36
	 201	1	21	-2.0	-90.47	-107.46	2328.63
	 202	1	13	0.0	-88.6	-104.83	2330.52
	 203	1	17	0.0	-89.3	-104.1	2334.2
	 204	1	9	1.0	-89.39	-101.92	2337.46
	 205	1	4	-1.0	-90.56	-98.45	2338.75
	 206	1	6	0.0	-93.83	-98.89	2336.78
	 207	1	5	0.0	-95.61	-97.84	2333.61
	 208	1	1	0.0	-95.59	-95.4	2330.73
	 209	1	16	0.0	-98.51	-94.85	2328.43
	 210	1	12	0.0	-99.58	-91.3	2328.47
	 211	1	14	0.0	-102.07	-90.83	2325.65
	 212	1	7	0.5	-104.68	-91.65	2322.95
	 213	1	1	0.0	-107.22	-94.54	2322.73
	 214	1	17	0.0	-106.24	-96.66	2319.69
	 215	1	6	0.0	-104.75	-100.09	2320.52
	 216	1	1	0.0	-101.08	-99.4	2319.78
	 217	1	16	0.0	-99.08	-101.73	2321.96
	 218	1	18	0.0	-96.92	-104.68	2320.81
	 219	1	14	0.0	-96.66	-106.2	2317.27
	 220	1	16	0.0	-98.82	-104.73	2314.44
	 221	1	3	-1.0	-96.97	-104.2	2311.2
	 222	1	4	-1.0	-99.16	-103.26	2308.2
	 223	1	10	0.0	-97.33	-105.41	2305.58
	 224	1	4	-1.0	-100.68	-106.08	2304.01
	 225	1	3	-1.0	-102.93	-108.78	2305.65
	 226	1	8	0.0	-105.87	-108.38	2307.92
	 227	1	3	-1.0	-106.15	-104.68	2307.47
	 228	1	13	0.0	-106.26	-101.54	2309.63
	 229	1	15	1.0	-104.65	-102.49	2312.91
	 230	1	1	0.0	-102.71	-100.18	2315.21
	 231	1	12	0.0	-104.13	-96.75	2314.54
	 232	1	18	0.0	-105.84	-94.11	2312.43
	 233	1	18	0.0	-109.31	-93.12	2311.24
	 234	1	10	0.0	-112.19	-95.02	2312.86
	 235	1	12	0.0	-114.66	-97.57	2314.01
	 236	1	18	0.0	-117.67	-96.3	2315.96
	 237	1	6	0.0	-121.36	-97.0	2315.02
	 238	1	13	0.0	-124.83	-98.48	2315.48
	 239	1	12	0.0	-124.98	-102.2	2315.6
	 240	1	11	0.0	-125.73	-104.69	2318.36
	 241	1	10	0.0	-128.87	-106.74	2319.27
	 242	1	16	0.0	-131.61	-104.73	2317.37
	 243	1	18	0.0	-131.2	-101.16	2316.06
	 244	1	6	0.0	-129.78	-98.08	2317.89
	 245	1	4	-1.0	-131.76	-94.92	2318.55
	 246	1	1	0.0	-130.94	-91.23	2318.66
	 247	1	13	0.0	-127.76	-89.48	2317.52
	 248	1	18	0.0	-126.6	-91.45	2314.62
	 249	1	4	-1.0	-125.15	-93.21	2311.45
	 250	1	16	0.0	-127.21	-96.3	2310.68
	 251	1	17	0.0	-130.48	-98.25	2310.11
	 252	1	16	0.0	-133.5	-99.77	2308.36
	 253	1	9	1.0	-135.35	-100.97	2311.47
	 254	1	4	-1.0	-138.85	-100.78	2313.03
	 255	1	4	-1.0	-141.88	-98.67	2314.13
	 256	1	3	-1.0	-144.15	-99.02	2317.28
	 257	1	9	1.0	-146.8	-101.55	2318.22
	 258	1	3	-1.0	-148.45	-103.7	2315.61
	 259	1	18	0.0	-151.46	-102.69	2313.33
	 260	1	13	0.0	-155.12	-101.84	2313.94
	 261	1	3	-1.0	-156.54	-102.69	2310.48
	 262	1	13	0.0	-155.72	-105.33	2307.91
	 263	1	8	0.0	-152.39	-106.13	2306.5
	 264	1	1	0.0	-152.8	-109.7	2307.87
	 265	1	12	0.0	-150.74	-111.64	2310.35
	 266	1	1	0.0	-148.48	-111.96	2313.4
	 267	1	11	0.0	-149.42	-113.58	2316.62
	 268	1	1	0.0	-146.99	-112.12	2319.19
	 269	1	4	-1.0	-144.84	-109.99	2321.6
	 270	1	10	0.0	-146.1	-110.49	2325.13
	 271	1	16	0.0	-148.51	-107.75	2326.01
	 272	1	16	0.0	-151.97	-106.44	2326.81
	 273	1	16	0.0	-153.63	-108.19	2323.93
	 274	1	11	0.0	-156.92	-108.6	2322.13
	 275	1	15	1.0	-157.04	-107.8	2318.37
	 276	1	15	1.0	-160.42	-108.78	2317.02
	 277	1	15	1.0	-163.69	-109.72	2315.14
	 278	1	14	0.0	-165.8	-106.53	2314.83
	 279	1	21	-2.0	-163.29	-103.72	2315.5
	 280	1	17	0.0	-161.41	-101.04	2317.38
	 281	1	16	0.0	-161.93	-103.0	2320.63
	 282	1	18	0.0	-162.29	-102.41	2324.35
	 283	1	3	-1.0	-165.5	-104.56	2323.87
	 284	1	3	-1.0	-167.78	-104.12	2326.87
	 285	1	4	-1.0	-169.73	-102.96	2330.02
	 286	1	1	0.0	-172.5	-101.79	2327.69
	 287	1	13	0.0	-171.51	-98.75	2325.7
	 288	1	18	0.0	-170.54	-95.1	2325.75
	 289	1	16	0.0	-171.0	-91.28	2325.83
	 290	1	10	0.0	-169.43	-88.95	2328.44
	 291	1	16	0.0	-172.22	-88.02	2330.89
	 292	1	9	1.0	-171.41	-89.48	2334.28
	 293	1	17	0.0	-168.05	-87.98	2335.42
	 294	1	16	0.0	-164.56	-89.0	2336.3
	 295	1	16	0.0	-162.37	-91.75	2334.73
	 296	1	16	0.0	-158.69	-92.71	2334.46
	 297	1	17	0.0	-155.82	-91.47	2336.79
	 298	1	15	1.0	-157.47	-91.74	2340.16
	 299	1	10	0.0	-156.61	-94.03	2343.13
	 300	1	12	0.0	-155.09	-97.45	2343.0
	 301	1	6	0.0	-153.52	-99.43	2345.78
	 302	1	10	0.0	-149.93	-100.66	2345.7
	 303	1	6	0.0	-146.64	-100.18	2343.63
	 304	1	20	0.0	-144.76	-96.86	2344.54
	 305	1	7	0.5	-144.68	-93.32	2343.16
	 306	1	16	0.0	-147.19	-93.13	2340.32
	 307	1	15	1.0	-147.68	-90.04	2337.99
	 308	1	12	0.0	-147.17	-86.28	2337.73
	 309	1	17	0.0	-146.98	-82.43	2338.0
	 310	1	21	-2.0	-150.6	-81.23	2338.68
	 311	1	8	0.0	-150.81	-78.5	2335.99
	 312	1	1	0.0	-151.77	-81.36	2333.57
	 313	1	16	0.0	-153.19	-80.24	2330.15
	 314	1	3	-1.0	-155.4	-79.59	2327.19
	 315	1	8	0.0	-156.27	-76.08	2326.1
	 316	1	3	-1.0	-155.6	-72.34	2325.42
	 317	1	6	0.0	-154.51	-69.42	2323.19
	 318	1	18	0.0	-151.85	-66.98	2322.0
	 319	1	13	0.0	-152.11	-63.79	2324.17
	 320	1	9	1.0	-153.97	-62.86	2327.33
	 321	1	9	1.0	-157.68	-63.17	2327.09
	 322	1	16	0.0	-160.89	-62.18	2325.37
	 323	1	17	0.0	-159.89	-59.43	2322.86
	 324	1	10	0.0	-162.75	-57.07	2322.16
	 325	1	6	0.0	-165.68	-58.14	2320.03
	 326	1	1	0.0	-164.5	-60.22	2317.05
	 327	1	13	0.0	-168.05	-61.38	2316.37
	 328	1	13	0.0	-170.87	-59.32	2314.91
	 329	1	1	0.0	-172.2	-59.08	2311.37
	 330	1	1	0.0	-173.66	-58.53	2307.87
	 331	1	7	0.5	-172.59	-56.86	2304.65
	 332	1	17	0.0	-173.38	-53.17	2304.24
	 333	1	16	0.0	-176.73	-51.98	2305.57
	 334	1	1	0.0	-178.23	-51.9	2309.19
	 335	1	14	0.0	-176.06	-51.28	2312.21
	 336	1	11	0.0	-175.35	-47.88	2313.72
	 337	1	14	0.0	-175.29	-46.07	2317.08
	 338	1	15	1.0	-174.68	-42.25	2317.18
	 339	1	11	0.0	-172.6	-40.43	2314.58
	 340	1	16	0.0	-174.04	-42.89	2312.03
	 341	1	12	0.0	-174.22	-41.35	2308.54
	 342	1	16	0.0	-171.17	-40.6	2306.5
	 343	1	5	0.0	-172.29	-42.9	2303.73
	 344	1	1	0.0	-170.85	-45.37	2306.25
	 345	1	16	0.0	-168.8	-48.53	2305.66
	 346	1	14	0.0	-166.85	-47.24	2308.58
	 347	1	17	0.0	-164.71	-50.03	2310.14
	 348	1	9	1.0	-161.37	-51.79	2309.4
	 349	1	14	0.0	-160.26	-52.66	2305.83
	 350	1	18	0.0	-157.41	-51.57	2303.53
	 351	1	5	0.0	-154.78	-51.44	2306.3
	 352	1	6	0.0	-152.26	-51.17	2309.13
	 353	1	4	-1.0	-148.83	-51.12	2310.68
	 354	1	14	0.0	-149.01	-52.61	2314.31
	 355	1	15	1.0	-149.68	-56.34	2314.36
	 356	1	17	0.0	-150.25	-57.87	2310.98
	 357	1	4	-1.0	-149.58	-60.79	2308.69
	 358	1	12	0.0	-146.04	-59.48	2308.16
	 359	1	16	0.0	-144.05	-62.51	2309.36
	 360	1	1	0.0	-141.43	-61.08	2311.73
	 361	1	15	1.0	-138.37	-60.8	2309.54
	 362	1	4	-1.0	-137.68	-63.51	2306.92
	 363	1	16	0.0	-138.49	-64.92	2303.5
	 364	1	10	0.0	-142.14	-66.11	2303.31
	 365	1	15	1.0	-145.06	-68.09	2301.84
	 366	1	7	0.5	-143.38	-70.76	2299.65
	 367	1	16	0.0	-142.82	-72.62	2296.25
	 368	1	15	1.0	-142.21	-74.84	2293.13
	 369	1	16	0.0	-140.46	-77.3	2290.94
	 370	1	12	0.0	-139.42	-76.11	2287.53
	 371	1	11	0.0	-139.91	-73.78	2284.55
	 372	1	16	0.0	-141.43	-72.3	2281.46
	 373	1	15	1.0	-142.21	-70.28	2278.31
	 374	1	16	0.0	-138.86	-70.69	2276.46
	 375	1	13	0.0	-137.63	-67.23	2275.52
	 376	1	21	-2.0	-140.52	-64.71	2276.37
	 377	1	13	0.0	-142.89	-64.22	2273.52
	 378	1	11	0.0	-143.94	-67.47	2272.01
	 379	1	10	0.0	-141.89	-67.66	2268.68
	 380	1	16	0.0	-141.04	-69.89	2265.71
	 381	1	15	1.0	-140.06	-73.36	2264.45
	 382	1	15	1.0	-139.14	-76.55	2262.57
	 383	1	16	0.0	-136.85	-79.65	2262.92
	 384	1	21	-2.0	-137.74	-83.09	2261.43
	 385	1	17	0.0	-140.49	-83.92	2258.87
	 386	1	10	0.0	-141.84	-84.8	2255.51
	 387	1	15	1.0	-140.66	-83.1	2252.19
	 388	1	13	0.0	-142.8	-84.6	2249.42
	 389	1	16	0.0	-142.93	-87.85	2247.55
	 390	1	5	0.0	-145.21	-90.9	2247.13
	 391	1	4	-1.0	-147.93	-93.63	2246.79
	 392	1	15	1.0	-151.51	-92.73	2245.58
	 393	1	16	0.0	-154.28	-95.34	2246.03
	 394	1	1	0.0	-155.85	-97.92	2243.71
	 395	1	21	-2.0	-156.68	-101.41	2245.03
	 396	1	16	0.0	-153.14	-102.37	2245.19
	 397	1	10	0.0	-151.93	-105.12	2242.78
	 398	1	16	0.0	-149.72	-108.25	2242.12
	 399	1	18	0.0	-146.39	-109.93	2242.79
	 400	1	15	1.0	-143.16	-110.37	2240.88
	 401	1	14	0.0	-140.01	-112.32	2241.56
	 402	1	16	0.0	-139.29	-110.82	2245.11
	 403	1	3	-1.0	-137.46	-107.73	2243.76
	 404	1	18	0.0	-136.81	-105.25	2240.98
	 405	1	18	0.0	-139.52	-102.52	2241.01
	 406	1	21	-2.0	-137.46	-99.3	2241.55
	 407	1	13	0.0	-138.56	-96.05	2239.85
	 408	1	1	0.0	-141.83	-95.87	2241.72
	 409	1	13	0.0	-143.83	-98.92	2240.96
	 410	1	16	0.0	-145.38	-102.34	2241.24
	 411	1	17	0.0	-146.96	-103.01	2237.79
	 412	1	15	1.0	-149.43	-104.17	2235.09
	 413	1	1	0.0	-148.53	-107.56	2233.64
	 414	1	15	1.0	-146.53	-110.62	2234.22
	 415	1	6	0.0	-145.19	-112.3	2231.08
	 416	1	14	0.0	-143.15	-110.08	2228.73
	 417	1	21	-2.0	-143.2	-106.27	2229.01
	 418	1	18	0.0	-143.15	-102.43	2228.95
	 419	1	16	0.0	-142.91	-101.04	2225.38
	 420	1	6	0.0	-146.17	-102.51	2224.24
	 421	1	14	0.0	-149.68	-103.74	2224.27
	 422	1	14	0.0	-148.7	-107.15	2225.64
	 423	1	15	1.0	-152.08	-108.9	2225.7
	 424	1	13	0.0	-153.01	-112.55	2226.43
	 425	1	16	0.0	-156.3	-114.52	2225.85
	 426	1	21	-2.0	-158.51	-115.16	2228.81
	 427	1	16	0.0	-156.37	-115.57	2231.95
	 428	1	11	0.0	-156.33	-118.67	2234.27
	 429	1	16	0.0	-157.71	-121.8	2232.53
	 430	1	10	0.0	-155.82	-122.11	2229.23
	 431	1	20	0.0	-156.58	-125.45	2227.48
	 432	1	6	0.0	-159.31	-123.42	2225.81
	 433	1	4	-1.0	-162.95	-122.39	2225.55
	 434	1	20	0.0	-166.34	-123.71	2226.25
	 435	1	12	0.0	-165.91	-127.26	2225.08
	 436	1	9	1.0	-162.68	-129.36	2225.23
	 437	1	16	0.0	-158.96	-129.77	2225.65
	 438	1	14	0.0	-156.9	-130.26	2222.42
	 439	1	13	0.0	-157.96	-132.05	2219.2
	 440	1	14	0.0	-156.34	-134.33	2216.61
	 441	1	10	0.0	-159.79	-135.5	2215.59
	 442	1	16	0.0	-162.52	-136.27	2218.07
	 443	1	11	0.0	-164.8	-139.09	2219.07
	 444	1	14	0.0	-166.26	-136.98	2221.99
	 445	1	15	1.0	-170.11	-137.23	2222.47
	 446	1	16	0.0	-171.8	-138.65	2219.55
	 447	1	18	0.0	-172.66	-140.86	2216.53
	 448	1	21	-2.0	-173.29	-144.56	2217.38
	 449	1	13	0.0	-171.52	-147.7	2218.29
	 450	1	12	0.0	-173.7	-149.2	2221.02
	 451	1	13	0.0	-175.66	-147.46	2223.88
	 452	1	10	0.0	-178.58	-145.08	2223.12
	 453	1	6	0.0	-178.76	-144.31	2226.87
	 454	1	13	0.0	-179.96	-144.96	2230.51
	 455	1	12	0.0	-182.19	-147.77	2231.86
	 456	1	15	1.0	-184.59	-150.58	2232.64
	 457	1	15	1.0	-186.85	-153.05	2234.56
	 458	1	16	0.0	-188.68	-151.33	2237.39
	 459	1	21	-2.0	-185.88	-149.17	2238.78
	 460	1	21	-2.0	-182.29	-148.83	2237.43
	 461	1	18	0.0	-182.8	-145.0	2237.17
	 462	1	10	0.0	-181.19	-141.56	2237.38
	 463	1	14	0.0	-179.03	-140.88	2240.55
	 464	1	16	0.0	-178.66	-137.12	2241.24
	 465	1	14	0.0	-179.5	-135.06	2244.38
	 466	1	9	1.0	-182.45	-136.57	2246.14
	 467	1	16	0.0	-183.37	-139.8	2247.91
	 468	1	17	0.0	-180.51	-140.07	2250.28
	 469	1	16	0.0	-177.01	-138.56	2249.86
	 470	1	16	0.0	-174.58	-137.41	2252.61
	 471	1	12	0.0	-171.08	-138.97	2252.58
	 472	1	17	0.0	-168.99	-142.08	2252.25
	 473	1	16	0.0	-169.59	-142.82	2248.66
	 474	1	12	0.0	-172.75	-145.0	2248.53
	 475	1	15	1.0	-174.77	-147.98	2247.51
	 476	1	12	0.0	-177.0	-151.03	2248.0
	 477	1	12	0.0	-180.17	-149.96	2249.85
	 478	1	6	0.0	-181.39	-153.54	2249.14
	 479	1	6	0.0	-184.31	-155.04	2250.86
	 480	1	20	0.0	-182.82	-156.4	2254.08
	 481	1	16	0.0	-179.22	-157.37	2254.76
	 482	1	6	0.0	-176.16	-155.76	2253.35
	 483	1	16	0.0	-172.39	-155.15	2253.9
	 484	1	15	1.0	-169.42	-157.55	2254.39
	 485	1	13	0.0	-166.99	-158.71	2257.18
	 486	1	16	0.0	-167.94	-157.71	2260.63
	 487	1	21	-2.0	-171.46	-156.48	2261.58
	 488	1	4	-1.0	-173.35	-159.29	2259.99
	 489	1	11	0.0	-173.44	-162.62	2261.79
	 490	1	6	0.0	-171.06	-164.76	2263.91
	 491	1	7	0.5	-171.48	-166.77	2267.1
	 492	1	15	1.0	-167.98	-168.2	2267.79
	 493	1	20	0.0	-165.04	-165.9	2267.22
	 494	1	6	0.0	-164.19	-162.35	2268.08
	 495	1	21	-2.0	-160.77	-161.25	2269.08
	 496	1	11	0.0	-160.81	-157.51	2268.5
	 497	1	16	0.0	-162.57	-155.34	2271.03
	 498	1	6	0.0	-166.19	-156.55	2270.78
	 499	1	15	1.0	-169.55	-157.75	2271.99
	 500	1	16	0.0	-167.31	-157.74	2275.01
	 501	1	11	0.0	-169.04	-157.65	2278.4
	 502	1	15	1.0	-170.95	-155.56	2280.99
	 503	1	14	0.0	-169.97	-151.93	2280.69
	 504	1	18	0.0	-172.43	-149.01	2280.16
	 505	1	21	-2.0	-174.63	-150.58	2277.4
	 506	1	14	0.0	-174.36	-149.38	2273.84
	 507	1	15	1.0	-174.99	-146.72	2271.12
	 508	1	16	0.0	-173.47	-147.47	2267.74
	 509	1	17	0.0	-171.13	-146.71	2264.85
	 510	1	21	-2.0	-173.79	-146.16	2262.17
	 511	1	15	1.0	-176.15	-144.17	2260.02
	 512	1	1	0.0	-178.58	-144.4	2263.03
	 513	1	15	1.0	-179.43	-145.06	2266.68
	 514	1	21	-2.0	-181.73	-148.06	2267.08
	 515	1	13	0.0	-180.38	-151.27	2265.52
	 516	1	4	-1.0	-182.39	-154.41	2266.47
	 517	1	13	0.0	-184.72	-152.41	2268.82
	 518	1	17	0.0	-185.52	-152.17	2272.54
	 519	1	12	0.0	-189.31	-151.56	2272.52
	 520	1	15	1.0	-193.13	-152.03	2273.05
	 521	1	12	0.0	-196.04	-154.17	2274.36
	 522	1	16	0.0	-197.86	-153.27	2277.57
	 523	1	18	0.0	-197.35	-152.67	2281.29
	 524	1	14	0.0	-198.37	-156.41	2281.78
	 525	1	16	0.0	-194.63	-157.18	2282.16
	 526	1	9	1.0	-191.96	-155.44	2284.16
	 527	1	12	0.0	-188.22	-155.53	2284.57
	 528	1	18	0.0	-186.46	-155.66	2281.1

Bonds

1 1 1 2
2 1 2 3
3 1 3 4
4 1 4 5
5 1 5 6
6 1 6 7
7 1 7 8
8 1 8 9
9 1 9 10
10 1 10 11
11 1 11 12
12 1 12 13
13 1 13 14
14 1 14 15
15 1 15 16
16 1 16 17
17 1 17 18
18 1 18 19
19 1 19 20
20 1 20 21
21 1 21 22
22 1 22 23
23 1 23 24
24 1 24 25
25 1 25 26
26 1 26 27
27 1 27 28
28 1 28 29
29 1 29 30
30 1 30 31
31 1 31 32
32 1 32 33
33 1 33 34
34 1 34 35
35 1 35 36
36 1 36 37
37 1 37 38
38 1 38 39
39 1 39 40
40 1 40 41
41 1 41 42
42 1 42 43
43 1 43 44
44 1 44 45
45 1 45 46
46 1 46 47
47 1 47 48
48 1 48 49
49 1 49 50
50 1 50 51
51 1 51 52
52 1 52 53
53 1 53 54
54 1 54 55
55 1 55 56
56 1 56 57
57 1 57 58
58 1 58 59
59 1 59 60
60 1 60 61
61 1 61 62
62 1 62 63
63 1 63 64
64 1 64 65
65 1 65 66
66 1 66 67
67 1 67 68
68 1 68 69
69 1 69 70
70 1 70 71
71 1 71 72
72 1 72 73
73 1 73 74
74 1 74 75
75 1 75 76
76 1 76 77
77 1 77 78
78 1 78 79
79 1 79 80
80 1 80 81
81 1 81 82
82 1 82 83
83 1 83 84
84 1 84 85
85 1 85 86
86 1 86 87
87 1 87 88
88 1 88 89
89 1 89 90
90 1 90 91
91 1 91 92
92 1 92 93
93 1 93 94
94 1 94 95
95 1 95 96
96 1 96 97
97 1 97 98
98 1 98 99
99 1 99 100
100 1 100 101
101 1 101 102
102 1 102 103
103 1 103 104
104 1 104 105
105 1 105 106
106 1 106 107
107 1 107 108
108 1 108 109
109 1 109 110
110 1 110 111
111 1 111 112
112 1 112 113
113 1 113 114
114 1 114 115
115 1 115 116
116 1 116 117
117 1 117 118
118 1 118 119
119 1 119 120
120 1 120 121
121 1 121 122
122 1 122 123
123 1 123 124
124 1 124 125
125 1 125 126
126 1 126 127
127 1 127 128
128 1 128 129
129 1 129 130
130 1 130 131
131 1 131 132
132 1 132 133
133 1 133 134
134 1 134 135
135 1 135 136
136 1 136 137
137 1 137 138
138 1 138 139
139 1 139 140
140 1 140 141
141 1 141 142
142 1 142 143
143 1 143 144
144 1 144 145
145 1 145 146
146 1 146 147
147 1 147 148
148 1 148 149
149 1 149 150
150 1 150 151
151 1 151 152
152 1 152 153
153 1 153 154
154 1 154 155
155 1 155 156
156 1 156 157
157 1 157 158
158 1 158 159
159 1 159 160
160 1 160 161
161 1 161 162
162 1 162 163
163 1 163 164
164 1 164 165
165 1 165 166
166 1 166 167
167 1 167 168
168 1 168 169
169 1 169 170
170 1 170 171
171 1 171 172
172 1 172 173
173 1 173 174
174 1 174 175
175 1 175 176
176 1 176 177
177 1 177 178
178 1 178 179
179 1 179 180
180 1 180 181
181 1 181 182
182 1 182 183
183 1 183 184
184 1 184 185
185 1 185 186
186 1 186 187
187 1 187 188
188 1 188 189
189 1 189 190
190 1 190 191
191 1 191 192
192 1 192 193
193 1 193 194
194 1 194 195
195 1 195 196
196 1 196 197
197 1 197 198
198 1 198 199
199 1 199 200
200 1 200 201
201 1 201 202
202 1 202 203
203 1 203 204
204 1 204 205
205 1 205 206
206 1 206 207
207 1 207 208
208 1 208 209
209 1 209 210
210 1 210 211
211 1 211 212
212 1 212 213
213 1 213 214
214 1 214 215
215 1 215 216
216 1 216 217
217 1 217 218
218 1 218 219
219 1 219 220
220 1 220 221
221 1 221 222
222 1 222 223
223 1 223 224
224 1 224 225
225 1 225 226
226 1 226 227
227 1 227 228
228 1 228 229
229 1 229 230
230 1 230 231
231 1 231 232
232 1 232 233
233 1 233 234
234 1 234 235
235 1 235 236
236 1 236 237
237 1 237 238
238 1 238 239
239 1 239 240
240 1 240 241
241 1 241 242
242 1 242 243
243 1 243 244
244 1 244 245
245 1 245 246
246 1 246 247
247 1 247 248
248 1 248 249
249 1 249 250
250 1 250 251
251 1 251 252
252 1 252 253
253 1 253 254
254 1 254 255
255 1 255 256
256 1 256 257
257 1 257 258
258 1 258 259
259 1 259 260
260 1 260 261
261 1 261 262
262 1 262 263
263 1 263 264
264 1 264 265
265 1 265 266
266 1 266 267
267 1 267 268
268 1 268 269
269 1 269 270
270 1 270 271
271 1 271 272
272 1 272 273
273 1 273 274
274 1 274 275
275 1 275 276
276 1 276 277
277 1 277 278
278 1 278 279
279 1 279 280
280 1 280 281
281 1 281 282
282 1 282 283
283 1 283 284
284 1 284 285
285 1 285 286
286 1 286 287
287 1 287 288
288 1 288 289
289 1 289 290
290 1 290 291
291 1 291 292
292 1 292 293
293 1 293 294
294 1 294 295
295 1 295 296
296 1 296 297
297 1 297 298
298 1 298 299
299 1 299 300
300 1 300 301
301 1 301 302
302 1 302 303
303 1 303 304
304 1 304 305
305 1 305 306
306 1 306 307
307 1 307 308
308 1 308 309
309 1 309 310
310 1 310 311
311 1 311 312
312 1 312 313
313 1 313 314
314 1 314 315
315 1 315 316
316 1 316 317
317 1 317 318
318 1 318 319
319 1 319 320
320 1 320 321
321 1 321 322
322 1 322 323
323 1 323 324
324 1 324 325
325 1 325 326
326 1 326 327
327 1 327 328
328 1 328 329
329 1 329 330
330 1 330 331
331 1 331 332
332 1 332 333
333 1 333 334
334 1 334 335
335 1 335 336
336 1 336 337
337 1 337 338
338 1 338 339
339 1 339 340
340 1 340 341
341 1 341 342
342 1 342 343
343 1 343 344
344 1 344 345
345 1 345 346
346 1 346 347
347 1 347 348
348 1 348 349
349 1 349 350
350 1 350 351
351 1 351 352
352 1 352 353
353 1 353 354
354 1 354 355
355 1 355 356
356 1 356 357
357 1 357 358
358 1 358 359
359 1 359 360
360 1 360 361
361 1 361 362
362 1 362 363
363 1 363 364
364 1 364 365
365 1 365 366
366 1 366 367
367 1 367 368
368 1 368 369
369 1 369 370
370 1 370 371
371 1 371 372
372 1 372 373
373 1 373 374
374 1 374 375
375 1 375 376
376 1 376 377
377 1 377 378
378 1 378 379
379 1 379 380
380 1 380 381
381 1 381 382
382 1 382 383
383 1 383 384
384 1 384 385
385 1 385 386
386 1 386 387
387 1 387 388
388 1 388 389
389 1 389 390
390 1 390 391
391 1 391 392
392 1 392 393
393 1 393 394
394 1 394 395
395 1 395 396
396 1 396 397
397 1 397 398
398 1 398 399
399 1 399 400
400 1 400 401
401 1 401 402
402 1 402 403
403 1 403 404
404 1 404 405
405 1 405 406
406 1 406 407
407 1 407 408
408 1 408 409
409 1 409 410
410 1 410 411
411 1 411 412
412 1 412 413
413 1 413 414
414 1 414 415
415 1 415 416
416 1 416 417
417 1 417 418
418 1 418 419
419 1 419 420
420 1 420 421
421 1 421 422
422 1 422 423
423 1 423 424
424 1 424 425
425 1 425 426
426 1 426 427
427 1 427 428
428 1 428 429
429 1 429 430
430 1 430 431
431 1 431 432
432 1 432 433
433 1 433 434
434 1 434 435
435 1 435 436
436 1 436 437
437 1 437 438
438 1 438 439
439 1 439 440
440 1 440 441
441 1 441 442
442 1 442 443
443 1 443 444
444 1 444 445
445 1 445 446
446 1 446 447
447 1 447 448
448 1 448 449
449 1 449 450
450 1 450 451
451 1 451 452
452 1 452 453
453 1 453 454
454 1 454 455
455 1 455 456
456 1 456 457
457 1 457 458
458 1 458 459
459 1 459 460
460 1 460 461
461 1 461 462
462 1 462 463
463 1 463 464
464 1 464 465
465 1 465 466
466 1 466 467
467 1 467 468
468 1 468 469
469 1 469 470
470 1 470 471
471 1 471 472
472 1 472 473
473 1 473 474
474 1 474 475
475 1 475 476
476 1 476 477
477 1 477 478
478 1 478 479
479 1 479 480
480 1 480 481
481 1 481 482
482 1 482 483
483 1 483 484
484 1 484 485
485 1 485 486
486 1 486 487
487 1 487 488
488 1 488 489
489 1 489 490
490 1 490 491
491 1 491 492
492 1 492 493
493 1 493 494
494 1 494 495
495 1 495 496
496 1 496 497
497 1 497 498
498 1 498 499
499 1 499 500
500 1 500 501
501 1 501 502
502 1 502 503
503 1 503 504
504 1 504 505
505 1 505 506
506 1 506 507
507 1 507 508
508 1 508 509
509 1 509 510
510 1 510 511
511 1 511 512
512 1 512 513
513 1 513 514
514 1 514 515
515 1 515 516
516 1 516 517
517 1 517 518
518 1 518 519
519 1 519 520
520 1 520 521
521 1 521 522
522 1 522 523
523 1 523 524
524 1 524 525
525 1 525 526
526 1 526 527
527 1 527 528
