LAMMPS data file

         528  atoms
         527  bonds
          20   atom types
           1   bond types

-2500.000000 2500.000000 xlo xhi
-2500.000000 2500.000000 ylo yhi
-2500.000000 2500.000000 zlo zhi

 Masses

    1	71.08
    2	103.10
    3	115.10
    4	129.10
    5	147.20
    6	57.05
    7	137.10
    8	113.20
    9	128.20
    10	113.20
    11	131.20
    12	114.10
    13	97.12
    14	128.10
    15	156.20
    16	87.08
    17	101.10
    18	99.07
    19	186.20
    20	163.20

 Atoms

	   1	1	1	0.0	0.0	0.0	3.8
	   2	1	16	0.0	0.0	0.0	7.6
	   3	1	10	0.0	0.0	0.0	11.4
	   4	1	1	0.0	0.0	0.0	15.2
	   5	1	16	0.0	0.0	0.0	19.0
	   6	1	16	0.0	0.0	0.0	22.8
	   7	1	13	0.0	0.0	0.0	26.6
	   8	1	17	0.0	0.0	0.0	30.4
	   9	1	15	1.0	0.0	0.0	34.2
	  10	1	16	0.0	0.0	0.0	38.0
	  11	1	1	0.0	0.0	0.0	41.8
	  12	1	5	0.0	0.0	0.0	45.6
	  13	1	15	1.0	0.0	0.0	49.4
	  14	1	13	0.0	0.0	0.0	53.2
	  15	1	9	1.0	0.0	0.0	57.0
	  16	1	17	0.0	0.0	0.0	60.8
	  17	1	16	0.0	0.0	0.0	64.6
	  18	1	4	-1.0	0.0	0.0	68.4
	  19	1	17	0.0	0.0	0.0	72.2
	  20	1	18	0.0	0.0	0.0	76.0
	  21	1	16	0.0	0.0	0.0	79.8
	  22	1	16	0.0	0.0	0.0	83.6
	  23	1	4	-1.0	0.0	0.0	87.4
	  24	1	18	0.0	0.0	0.0	91.2
	  25	1	18	0.0	0.0	0.0	95.0
	  26	1	16	0.0	0.0	0.0	98.8
	  27	1	16	0.0	0.0	0.0	102.6
	  28	1	13	0.0	0.0	0.0	106.4
	  29	1	13	0.0	0.0	0.0	110.2
	  30	1	17	0.0	0.0	0.0	114.0
	  31	1	16	0.0	0.0	0.0	117.8
	  32	1	13	0.0	0.0	0.0	121.6
	  33	1	10	0.0	0.0	0.0	125.4
	  34	1	7	0.5	0.0	0.0	129.2
	  35	1	16	0.0	0.0	0.0	133.0
	  36	1	13	0.0	0.0	0.0	136.8
	  37	1	18	0.0	0.0	0.0	140.6
	  38	1	9	1.0	0.0	0.0	144.4
	  39	1	13	0.0	0.0	0.0	148.2
	  40	1	18	0.0	0.0	0.0	152.0
	  41	1	16	0.0	0.0	0.0	155.8
	  42	1	12	0.0	0.0	0.0	159.6
	  43	1	4	-1.0	0.0	0.0	163.4
	  44	1	14	0.0	0.0	0.0	167.2
	  45	1	18	0.0	0.0	0.0	171.0
	  46	1	4	-1.0	0.0	0.0	174.8
	  47	1	14	0.0	0.0	0.0	178.6
	  48	1	18	0.0	0.0	0.0	182.4
	  49	1	17	0.0	0.0	0.0	186.2
	  50	1	4	-1.0	0.0	0.0	190.0
	  51	1	18	0.0	0.0	0.0	193.8
	  52	1	4	-1.0	0.0	0.0	197.6
	  53	1	10	0.0	0.0	0.0	201.4
	  54	1	16	0.0	0.0	0.0	205.2
	  55	1	8	0.0	0.0	0.0	209.0
	  56	1	13	0.0	0.0	0.0	212.8
	  57	1	18	0.0	0.0	0.0	216.6
	  58	1	13	0.0	0.0	0.0	220.4
	  59	1	16	0.0	0.0	0.0	224.2
	  60	1	8	0.0	0.0	0.0	228.0
	  61	1	14	0.0	0.0	0.0	231.8
	  62	1	4	-1.0	0.0	0.0	235.6
	  63	1	1	0.0	0.0	0.0	239.4
	  64	1	4	-1.0	0.0	0.0	243.2
	  65	1	16	0.0	0.0	0.0	247.0
	  66	1	14	0.0	0.0	0.0	250.8
	  67	1	9	1.0	0.0	0.0	254.6
	  68	1	13	0.0	0.0	0.0	258.4
	  69	1	18	0.0	0.0	0.0	262.2
	  70	1	10	0.0	0.0	0.0	266.0
	  71	1	17	0.0	0.0	0.0	269.8
	  72	1	6	0.0	0.0	0.0	273.6
	  73	1	16	0.0	0.0	0.0	277.4
	  74	1	16	0.0	0.0	0.0	281.2
	  75	1	11	0.0	0.0	0.0	285.0
	  76	1	15	1.0	0.0	0.0	288.8
	  77	1	15	1.0	0.0	0.0	292.6
	  78	1	13	0.0	0.0	0.0	296.4
	  79	1	16	0.0	0.0	0.0	300.2
	  80	1	18	0.0	0.0	0.0	304.0
	  81	1	17	0.0	0.0	0.0	307.8
	  82	1	16	0.0	0.0	0.0	311.6
	  83	1	13	0.0	0.0	0.0	315.4
	  84	1	17	0.0	0.0	0.0	319.2
	  85	1	5	0.0	0.0	0.0	323.0
	  86	1	4	-1.0	0.0	0.0	326.8
	  87	1	18	0.0	0.0	0.0	330.6
	  88	1	1	0.0	0.0	0.0	334.4
	  89	1	1	0.0	0.0	0.0	338.2
	  90	1	15	1.0	0.0	0.0	342.0
	  91	1	13	0.0	0.0	0.0	345.8
	  92	1	10	0.0	0.0	0.0	349.6
	  93	1	17	0.0	0.0	0.0	353.4
	  94	1	16	0.0	0.0	0.0	357.2
	  95	1	11	0.0	0.0	0.0	361.0
	  96	1	3	-1.0	0.0	0.0	364.8
	  97	1	18	0.0	0.0	0.0	368.6
	  98	1	15	1.0	0.0	0.0	372.4
	  99	1	16	0.0	0.0	0.0	376.2
	 100	1	16	0.0	0.0	0.0	380.0
	 101	1	7	0.5	0.0	0.0	383.8
	 102	1	12	0.0	0.0	0.0	387.6
	 103	1	1	0.0	0.0	0.0	391.4
	 104	1	4	-1.0	0.0	0.0	395.2
	 105	1	17	0.0	0.0	0.0	399.0
	 106	1	4	-1.0	0.0	0.0	402.8
	 107	1	18	0.0	0.0	0.0	406.6
	 108	1	14	0.0	0.0	0.0	410.4
	 109	1	1	0.0	0.0	0.0	414.2
	 110	1	8	0.0	0.0	0.0	418.0
	 111	1	13	0.0	0.0	0.0	421.8
	 112	1	1	0.0	0.0	0.0	425.6
	 113	1	1	0.0	0.0	0.0	429.4
	 114	1	17	0.0	0.0	0.0	433.2
	 115	1	3	-1.0	0.0	0.0	437.0
	 116	1	8	0.0	0.0	0.0	440.8
	 117	1	16	0.0	0.0	0.0	444.6
	 118	1	13	0.0	0.0	0.0	448.4
	 119	1	4	-1.0	0.0	0.0	452.2
	 120	1	18	0.0	0.0	0.0	456.0
	 121	1	9	1.0	0.0	0.0	459.8
	 122	1	4	-1.0	0.0	0.0	463.6
	 123	1	6	0.0	0.0	0.0	467.4
	 124	1	9	1.0	0.0	0.0	471.2
	 125	1	12	0.0	0.0	0.0	475.0
	 126	1	16	0.0	0.0	0.0	478.8
	 127	1	4	-1.0	0.0	0.0	482.6
	 128	1	12	0.0	0.0	0.0	486.4
	 129	1	1	0.0	0.0	0.0	490.2
	 130	1	8	0.0	0.0	0.0	494.0
	 131	1	17	0.0	0.0	0.0	497.8
	 132	1	9	1.0	0.0	0.0	501.6
	 133	1	3	-1.0	0.0	0.0	505.4
	 134	1	12	0.0	0.0	0.0	509.2
	 135	1	3	-1.0	0.0	0.0	513.0
	 136	1	3	-1.0	0.0	0.0	516.8
	 137	1	8	0.0	0.0	0.0	520.6
	 138	1	8	0.0	0.0	0.0	524.4
	 139	1	10	0.0	0.0	0.0	528.2
	 140	1	16	0.0	0.0	0.0	532.0
	 141	1	16	0.0	0.0	0.0	535.8
	 142	1	14	0.0	0.0	0.0	539.6
	 143	1	10	0.0	0.0	0.0	543.4
	 144	1	14	0.0	0.0	0.0	547.2
	 145	1	13	0.0	0.0	0.0	551.0
	 146	1	17	0.0	0.0	0.0	554.8
	 147	1	1	0.0	0.0	0.0	558.6
	 148	1	17	0.0	0.0	0.0	562.4
	 149	1	6	0.0	0.0	0.0	566.2
	 150	1	16	0.0	0.0	0.0	570.0
	 151	1	15	1.0	0.0	0.0	573.8
	 152	1	16	0.0	0.0	0.0	577.6
	 153	1	16	0.0	0.0	0.0	581.4
	 154	1	15	1.0	0.0	0.0	585.2
	 155	1	10	0.0	0.0	0.0	589.0
	 156	1	16	0.0	0.0	0.0	592.8
	 157	1	5	0.0	0.0	0.0	596.6
	 158	1	16	0.0	0.0	0.0	600.4
	 159	1	15	1.0	0.0	0.0	604.2
	 160	1	7	0.5	0.0	0.0	608.0
	 161	1	6	0.0	0.0	0.0	611.8
	 162	1	7	0.5	0.0	0.0	615.6
	 163	1	6	0.0	0.0	0.0	619.4
	 164	1	16	0.0	0.0	0.0	623.2
	 165	1	14	0.0	0.0	0.0	627.0
	 166	1	17	0.0	0.0	0.0	630.8
	 167	1	16	0.0	0.0	0.0	634.6
	 168	1	10	0.0	0.0	0.0	638.4
	 169	1	6	0.0	0.0	0.0	642.2
	 170	1	16	0.0	0.0	0.0	646.0
	 171	1	8	0.0	0.0	0.0	649.8
	 172	1	9	1.0	0.0	0.0	653.6
	 173	1	15	1.0	0.0	0.0	657.4
	 174	1	9	1.0	0.0	0.0	661.2
	 175	1	16	0.0	0.0	0.0	665.0
	 176	1	8	0.0	0.0	0.0	668.8
	 177	1	11	0.0	0.0	0.0	672.6
	 178	1	4	-1.0	0.0	0.0	676.4
	 179	1	15	1.0	0.0	0.0	680.2
	 180	1	11	0.0	0.0	0.0	684.0
	 181	1	6	0.0	0.0	0.0	687.8
	 182	1	15	1.0	0.0	0.0	691.6
	 183	1	13	0.0	0.0	0.0	695.4
	 184	1	17	0.0	0.0	0.0	699.2
	 185	1	16	0.0	0.0	0.0	703.0
	 186	1	13	0.0	0.0	0.0	706.8
	 187	1	5	0.0	0.0	0.0	710.6
	 188	1	11	0.0	0.0	0.0	714.4
	 189	1	6	0.0	0.0	0.0	718.2
	 190	1	16	0.0	0.0	0.0	722.0
	 191	1	16	0.0	0.0	0.0	725.8
	 192	1	5	0.0	0.0	0.0	729.6
	 193	1	16	0.0	0.0	0.0	733.4
	 194	1	12	0.0	0.0	0.0	737.2
	 195	1	11	0.0	0.0	0.0	741.0
	 196	1	6	0.0	0.0	0.0	744.8
	 197	1	16	0.0	0.0	0.0	748.6
	 198	1	15	1.0	0.0	0.0	752.4
	 199	1	16	0.0	0.0	0.0	756.2
	 200	1	17	0.0	0.0	0.0	760.0
	 201	1	16	0.0	0.0	0.0	763.8
	 202	1	13	0.0	0.0	0.0	767.6
	 203	1	17	0.0	0.0	0.0	771.4
	 204	1	9	1.0	0.0	0.0	775.2
	 205	1	4	-1.0	0.0	0.0	779.0
	 206	1	6	0.0	0.0	0.0	782.8
	 207	1	5	0.0	0.0	0.0	786.6
	 208	1	1	0.0	0.0	0.0	790.4
	 209	1	16	0.0	0.0	0.0	794.2
	 210	1	12	0.0	0.0	0.0	798.0
	 211	1	14	0.0	0.0	0.0	801.8
	 212	1	7	0.5	0.0	0.0	805.6
	 213	1	1	0.0	0.0	0.0	809.4
	 214	1	17	0.0	0.0	0.0	813.2
	 215	1	6	0.0	0.0	0.0	817.0
	 216	1	1	0.0	0.0	0.0	820.8
	 217	1	16	0.0	0.0	0.0	824.6
	 218	1	18	0.0	0.0	0.0	828.4
	 219	1	14	0.0	0.0	0.0	832.2
	 220	1	16	0.0	0.0	0.0	836.0
	 221	1	3	-1.0	0.0	0.0	839.8
	 222	1	4	-1.0	0.0	0.0	843.6
	 223	1	10	0.0	0.0	0.0	847.4
	 224	1	4	-1.0	0.0	0.0	851.2
	 225	1	3	-1.0	0.0	0.0	855.0
	 226	1	8	0.0	0.0	0.0	858.8
	 227	1	3	-1.0	0.0	0.0	862.6
	 228	1	13	0.0	0.0	0.0	866.4
	 229	1	15	1.0	0.0	0.0	870.2
	 230	1	1	0.0	0.0	0.0	874.0
	 231	1	12	0.0	0.0	0.0	877.8
	 232	1	18	0.0	0.0	0.0	881.6
	 233	1	18	0.0	0.0	0.0	885.4
	 234	1	10	0.0	0.0	0.0	889.2
	 235	1	12	0.0	0.0	0.0	893.0
	 236	1	18	0.0	0.0	0.0	896.8
	 237	1	6	0.0	0.0	0.0	900.6
	 238	1	13	0.0	0.0	0.0	904.4
	 239	1	12	0.0	0.0	0.0	908.2
	 240	1	11	0.0	0.0	0.0	912.0
	 241	1	10	0.0	0.0	0.0	915.8
	 242	1	16	0.0	0.0	0.0	919.6
	 243	1	18	0.0	0.0	0.0	923.4
	 244	1	6	0.0	0.0	0.0	927.2
	 245	1	4	-1.0	0.0	0.0	931.0
	 246	1	1	0.0	0.0	0.0	934.8
	 247	1	13	0.0	0.0	0.0	938.6
	 248	1	18	0.0	0.0	0.0	942.4
	 249	1	4	-1.0	0.0	0.0	946.2
	 250	1	16	0.0	0.0	0.0	950.0
	 251	1	17	0.0	0.0	0.0	953.8
	 252	1	16	0.0	0.0	0.0	957.6
	 253	1	9	1.0	0.0	0.0	961.4
	 254	1	4	-1.0	0.0	0.0	965.2
	 255	1	4	-1.0	0.0	0.0	969.0
	 256	1	3	-1.0	0.0	0.0	972.8
	 257	1	9	1.0	0.0	0.0	976.6
	 258	1	3	-1.0	0.0	0.0	980.4
	 259	1	18	0.0	0.0	0.0	984.2
	 260	1	13	0.0	0.0	0.0	988.0
	 261	1	3	-1.0	0.0	0.0	991.8
	 262	1	13	0.0	0.0	0.0	995.6
	 263	1	8	0.0	0.0	0.0	999.4
	 264	1	1	0.0	0.0	0.0	1003.2
	 265	1	12	0.0	0.0	0.0	1007.0
	 266	1	1	0.0	0.0	0.0	1010.8
	 267	1	11	0.0	0.0	0.0	1014.6
	 268	1	1	0.0	0.0	0.0	1018.4
	 269	1	4	-1.0	0.0	0.0	1022.2
	 270	1	10	0.0	0.0	0.0	1026.0
	 271	1	16	0.0	0.0	0.0	1029.8
	 272	1	16	0.0	0.0	0.0	1033.6
	 273	1	16	0.0	0.0	0.0	1037.4
	 274	1	11	0.0	0.0	0.0	1041.2
	 275	1	15	1.0	0.0	0.0	1045.0
	 276	1	15	1.0	0.0	0.0	1048.8
	 277	1	15	1.0	0.0	0.0	1052.6
	 278	1	14	0.0	0.0	0.0	1056.4
	 279	1	16	0.0	0.0	0.0	1060.2
	 280	1	17	0.0	0.0	0.0	1064.0
	 281	1	16	0.0	0.0	0.0	1067.8
	 282	1	18	0.0	0.0	0.0	1071.6
	 283	1	3	-1.0	0.0	0.0	1075.4
	 284	1	3	-1.0	0.0	0.0	1079.2
	 285	1	4	-1.0	0.0	0.0	1083.0
	 286	1	1	0.0	0.0	0.0	1086.8
	 287	1	13	0.0	0.0	0.0	1090.6
	 288	1	18	0.0	0.0	0.0	1094.4
	 289	1	16	0.0	0.0	0.0	1098.2
	 290	1	10	0.0	0.0	0.0	1102.0
	 291	1	16	0.0	0.0	0.0	1105.8
	 292	1	9	1.0	0.0	0.0	1109.6
	 293	1	17	0.0	0.0	0.0	1113.4
	 294	1	16	0.0	0.0	0.0	1117.2
	 295	1	16	0.0	0.0	0.0	1121.0
	 296	1	16	0.0	0.0	0.0	1124.8
	 297	1	17	0.0	0.0	0.0	1128.6
	 298	1	15	1.0	0.0	0.0	1132.4
	 299	1	10	0.0	0.0	0.0	1136.2
	 300	1	12	0.0	0.0	0.0	1140.0
	 301	1	6	0.0	0.0	0.0	1143.8
	 302	1	10	0.0	0.0	0.0	1147.6
	 303	1	6	0.0	0.0	0.0	1151.4
	 304	1	20	0.0	0.0	0.0	1155.2
	 305	1	7	0.5	0.0	0.0	1159.0
	 306	1	16	0.0	0.0	0.0	1162.8
	 307	1	15	1.0	0.0	0.0	1166.6
	 308	1	12	0.0	0.0	0.0	1170.4
	 309	1	17	0.0	0.0	0.0	1174.2
	 310	1	16	0.0	0.0	0.0	1178.0
	 311	1	8	0.0	0.0	0.0	1181.8
	 312	1	1	0.0	0.0	0.0	1185.6
	 313	1	16	0.0	0.0	0.0	1189.4
	 314	1	3	-1.0	0.0	0.0	1193.2
	 315	1	8	0.0	0.0	0.0	1197.0
	 316	1	3	-1.0	0.0	0.0	1200.8
	 317	1	6	0.0	0.0	0.0	1204.6
	 318	1	18	0.0	0.0	0.0	1208.4
	 319	1	13	0.0	0.0	0.0	1212.2
	 320	1	9	1.0	0.0	0.0	1216.0
	 321	1	9	1.0	0.0	0.0	1219.8
	 322	1	16	0.0	0.0	0.0	1223.6
	 323	1	17	0.0	0.0	0.0	1227.4
	 324	1	10	0.0	0.0	0.0	1231.2
	 325	1	6	0.0	0.0	0.0	1235.0
	 326	1	1	0.0	0.0	0.0	1238.8
	 327	1	13	0.0	0.0	0.0	1242.6
	 328	1	13	0.0	0.0	0.0	1246.4
	 329	1	1	0.0	0.0	0.0	1250.2
	 330	1	1	0.0	0.0	0.0	1254.0
	 331	1	7	0.5	0.0	0.0	1257.8
	 332	1	17	0.0	0.0	0.0	1261.6
	 333	1	16	0.0	0.0	0.0	1265.4
	 334	1	1	0.0	0.0	0.0	1269.2
	 335	1	14	0.0	0.0	0.0	1273.0
	 336	1	11	0.0	0.0	0.0	1276.8
	 337	1	14	0.0	0.0	0.0	1280.6
	 338	1	15	1.0	0.0	0.0	1284.4
	 339	1	11	0.0	0.0	0.0	1288.2
	 340	1	16	0.0	0.0	0.0	1292.0
	 341	1	12	0.0	0.0	0.0	1295.8
	 342	1	16	0.0	0.0	0.0	1299.6
	 343	1	5	0.0	0.0	0.0	1303.4
	 344	1	1	0.0	0.0	0.0	1307.2
	 345	1	16	0.0	0.0	0.0	1311.0
	 346	1	14	0.0	0.0	0.0	1314.8
	 347	1	17	0.0	0.0	0.0	1318.6
	 348	1	9	1.0	0.0	0.0	1322.4
	 349	1	14	0.0	0.0	0.0	1326.2
	 350	1	18	0.0	0.0	0.0	1330.0
	 351	1	5	0.0	0.0	0.0	1333.8
	 352	1	6	0.0	0.0	0.0	1337.6
	 353	1	4	-1.0	0.0	0.0	1341.4
	 354	1	14	0.0	0.0	0.0	1345.2
	 355	1	15	1.0	0.0	0.0	1349.0
	 356	1	17	0.0	0.0	0.0	1352.8
	 357	1	4	-1.0	0.0	0.0	1356.6
	 358	1	12	0.0	0.0	0.0	1360.4
	 359	1	16	0.0	0.0	0.0	1364.2
	 360	1	1	0.0	0.0	0.0	1368.0
	 361	1	15	1.0	0.0	0.0	1371.8
	 362	1	4	-1.0	0.0	0.0	1375.6
	 363	1	16	0.0	0.0	0.0	1379.4
	 364	1	10	0.0	0.0	0.0	1383.2
	 365	1	15	1.0	0.0	0.0	1387.0
	 366	1	7	0.5	0.0	0.0	1390.8
	 367	1	16	0.0	0.0	0.0	1394.6
	 368	1	15	1.0	0.0	0.0	1398.4
	 369	1	16	0.0	0.0	0.0	1402.2
	 370	1	12	0.0	0.0	0.0	1406.0
	 371	1	11	0.0	0.0	0.0	1409.8
	 372	1	16	0.0	0.0	0.0	1413.6
	 373	1	15	1.0	0.0	0.0	1417.4
	 374	1	16	0.0	0.0	0.0	1421.2
	 375	1	13	0.0	0.0	0.0	1425.0
	 376	1	16	0.0	0.0	0.0	1428.8
	 377	1	13	0.0	0.0	0.0	1432.6
	 378	1	11	0.0	0.0	0.0	1436.4
	 379	1	10	0.0	0.0	0.0	1440.2
	 380	1	16	0.0	0.0	0.0	1444.0
	 381	1	15	1.0	0.0	0.0	1447.8
	 382	1	15	1.0	0.0	0.0	1451.6
	 383	1	16	0.0	0.0	0.0	1455.4
	 384	1	16	0.0	0.0	0.0	1459.2
	 385	1	17	0.0	0.0	0.0	1463.0
	 386	1	10	0.0	0.0	0.0	1466.8
	 387	1	15	1.0	0.0	0.0	1470.6
	 388	1	13	0.0	0.0	0.0	1474.4
	 389	1	16	0.0	0.0	0.0	1478.2
	 390	1	5	0.0	0.0	0.0	1482.0
	 391	1	4	-1.0	0.0	0.0	1485.8
	 392	1	15	1.0	0.0	0.0	1489.6
	 393	1	16	0.0	0.0	0.0	1493.4
	 394	1	1	0.0	0.0	0.0	1497.2
	 395	1	16	0.0	0.0	0.0	1501.0
	 396	1	16	0.0	0.0	0.0	1504.8
	 397	1	10	0.0	0.0	0.0	1508.6
	 398	1	16	0.0	0.0	0.0	1512.4
	 399	1	18	0.0	0.0	0.0	1516.2
	 400	1	15	1.0	0.0	0.0	1520.0
	 401	1	14	0.0	0.0	0.0	1523.8
	 402	1	16	0.0	0.0	0.0	1527.6
	 403	1	3	-1.0	0.0	0.0	1531.4
	 404	1	18	0.0	0.0	0.0	1535.2
	 405	1	18	0.0	0.0	0.0	1539.0
	 406	1	16	0.0	0.0	0.0	1542.8
	 407	1	13	0.0	0.0	0.0	1546.6
	 408	1	1	0.0	0.0	0.0	1550.4
	 409	1	13	0.0	0.0	0.0	1554.2
	 410	1	16	0.0	0.0	0.0	1558.0
	 411	1	17	0.0	0.0	0.0	1561.8
	 412	1	15	1.0	0.0	0.0	1565.6
	 413	1	1	0.0	0.0	0.0	1569.4
	 414	1	15	1.0	0.0	0.0	1573.2
	 415	1	6	0.0	0.0	0.0	1577.0
	 416	1	14	0.0	0.0	0.0	1580.8
	 417	1	16	0.0	0.0	0.0	1584.6
	 418	1	18	0.0	0.0	0.0	1588.4
	 419	1	16	0.0	0.0	0.0	1592.2
	 420	1	6	0.0	0.0	0.0	1596.0
	 421	1	14	0.0	0.0	0.0	1599.8
	 422	1	14	0.0	0.0	0.0	1603.6
	 423	1	15	1.0	0.0	0.0	1607.4
	 424	1	13	0.0	0.0	0.0	1611.2
	 425	1	16	0.0	0.0	0.0	1615.0
	 426	1	16	0.0	0.0	0.0	1618.8
	 427	1	16	0.0	0.0	0.0	1622.6
	 428	1	11	0.0	0.0	0.0	1626.4
	 429	1	16	0.0	0.0	0.0	1630.2
	 430	1	10	0.0	0.0	0.0	1634.0
	 431	1	20	0.0	0.0	0.0	1637.8
	 432	1	6	0.0	0.0	0.0	1641.6
	 433	1	4	-1.0	0.0	0.0	1645.4
	 434	1	20	0.0	0.0	0.0	1649.2
	 435	1	12	0.0	0.0	0.0	1653.0
	 436	1	9	1.0	0.0	0.0	1656.8
	 437	1	16	0.0	0.0	0.0	1660.6
	 438	1	14	0.0	0.0	0.0	1664.4
	 439	1	13	0.0	0.0	0.0	1668.2
	 440	1	14	0.0	0.0	0.0	1672.0
	 441	1	10	0.0	0.0	0.0	1675.8
	 442	1	16	0.0	0.0	0.0	1679.6
	 443	1	11	0.0	0.0	0.0	1683.4
	 444	1	14	0.0	0.0	0.0	1687.2
	 445	1	15	1.0	0.0	0.0	1691.0
	 446	1	16	0.0	0.0	0.0	1694.8
	 447	1	18	0.0	0.0	0.0	1698.6
	 448	1	16	0.0	0.0	0.0	1702.4
	 449	1	13	0.0	0.0	0.0	1706.2
	 450	1	12	0.0	0.0	0.0	1710.0
	 451	1	13	0.0	0.0	0.0	1713.8
	 452	1	10	0.0	0.0	0.0	1717.6
	 453	1	6	0.0	0.0	0.0	1721.4
	 454	1	13	0.0	0.0	0.0	1725.2
	 455	1	12	0.0	0.0	0.0	1729.0
	 456	1	15	1.0	0.0	0.0	1732.8
	 457	1	15	1.0	0.0	0.0	1736.6
	 458	1	16	0.0	0.0	0.0	1740.4
	 459	1	16	0.0	0.0	0.0	1744.2
	 460	1	16	0.0	0.0	0.0	1748.0
	 461	1	18	0.0	0.0	0.0	1751.8
	 462	1	10	0.0	0.0	0.0	1755.6
	 463	1	14	0.0	0.0	0.0	1759.4
	 464	1	16	0.0	0.0	0.0	1763.2
	 465	1	14	0.0	0.0	0.0	1767.0
	 466	1	9	1.0	0.0	0.0	1770.8
	 467	1	16	0.0	0.0	0.0	1774.6
	 468	1	17	0.0	0.0	0.0	1778.4
	 469	1	16	0.0	0.0	0.0	1782.2
	 470	1	16	0.0	0.0	0.0	1786.0
	 471	1	12	0.0	0.0	0.0	1789.8
	 472	1	17	0.0	0.0	0.0	1793.6
	 473	1	16	0.0	0.0	0.0	1797.4
	 474	1	12	0.0	0.0	0.0	1801.2
	 475	1	15	1.0	0.0	0.0	1805.0
	 476	1	12	0.0	0.0	0.0	1808.8
	 477	1	12	0.0	0.0	0.0	1812.6
	 478	1	6	0.0	0.0	0.0	1816.4
	 479	1	6	0.0	0.0	0.0	1820.2
	 480	1	20	0.0	0.0	0.0	1824.0
	 481	1	16	0.0	0.0	0.0	1827.8
	 482	1	6	0.0	0.0	0.0	1831.6
	 483	1	16	0.0	0.0	0.0	1835.4
	 484	1	15	1.0	0.0	0.0	1839.2
	 485	1	13	0.0	0.0	0.0	1843.0
	 486	1	16	0.0	0.0	0.0	1846.8
	 487	1	16	0.0	0.0	0.0	1850.6
	 488	1	4	-1.0	0.0	0.0	1854.4
	 489	1	11	0.0	0.0	0.0	1858.2
	 490	1	6	0.0	0.0	0.0	1862.0
	 491	1	7	0.5	0.0	0.0	1865.8
	 492	1	15	1.0	0.0	0.0	1869.6
	 493	1	20	0.0	0.0	0.0	1873.4
	 494	1	6	0.0	0.0	0.0	1877.2
	 495	1	16	0.0	0.0	0.0	1881.0
	 496	1	11	0.0	0.0	0.0	1884.8
	 497	1	16	0.0	0.0	0.0	1888.6
	 498	1	6	0.0	0.0	0.0	1892.4
	 499	1	15	1.0	0.0	0.0	1896.2
	 500	1	16	0.0	0.0	0.0	1900.0
	 501	1	11	0.0	0.0	0.0	1903.8
	 502	1	15	1.0	0.0	0.0	1907.6
	 503	1	14	0.0	0.0	0.0	1911.4
	 504	1	18	0.0	0.0	0.0	1915.2
	 505	1	16	0.0	0.0	0.0	1919.0
	 506	1	14	0.0	0.0	0.0	1922.8
	 507	1	15	1.0	0.0	0.0	1926.6
	 508	1	16	0.0	0.0	0.0	1930.4
	 509	1	17	0.0	0.0	0.0	1934.2
	 510	1	16	0.0	0.0	0.0	1938.0
	 511	1	15	1.0	0.0	0.0	1941.8
	 512	1	1	0.0	0.0	0.0	1945.6
	 513	1	15	1.0	0.0	0.0	1949.4
	 514	1	16	0.0	0.0	0.0	1953.2
	 515	1	13	0.0	0.0	0.0	1957.0
	 516	1	4	-1.0	0.0	0.0	1960.8
	 517	1	13	0.0	0.0	0.0	1964.6
	 518	1	17	0.0	0.0	0.0	1968.4
	 519	1	12	0.0	0.0	0.0	1972.2
	 520	1	15	1.0	0.0	0.0	1976.0
	 521	1	12	0.0	0.0	0.0	1979.8
	 522	1	16	0.0	0.0	0.0	1983.6
	 523	1	18	0.0	0.0	0.0	1987.4
	 524	1	14	0.0	0.0	0.0	1991.2
	 525	1	16	0.0	0.0	0.0	1995.0
	 526	1	9	1.0	0.0	0.0	1998.8
	 527	1	12	0.0	0.0	0.0	2002.6
	 528	1	18	0.0	0.0	0.0	2006.4

Bonds

        1       1       1       2
        2       1       2       3
        3       1       3       4
        4       1       4       5
        5       1       5       6
        6       1       6       7
        7       1       7       8
        8       1       8       9
        9       1       9       10
        10      1       10      11
        11      1       11      12
        12      1       12      13
        13      1       13      14
        14      1       14      15
        15      1       15      16
        16      1       16      17
        17      1       17      18
        18      1       18      19
        19      1       19      20
        20      1       20      21
        21      1       21      22
        22      1       22      23
        23      1       23      24
        24      1       24      25
        25      1       25      26
        26      1       26      27
        27      1       27      28
        28      1       28      29
        29      1       29      30
        30      1       30      31
        31      1       31      32
        32      1       32      33
        33      1       33      34
        34      1       34      35
        35      1       35      36
        36      1       36      37
        37      1       37      38
        38      1       38      39
        39      1       39      40
        40      1       40      41
        41      1       41      42
        42      1       42      43
        43      1       43      44
        44      1       44      45
        45      1       45      46
        46      1       46      47
        47      1       47      48
        48      1       48      49
        49      1       49      50
        50      1       50      51
        51      1       51      52
        52      1       52      53
        53      1       53      54
        54      1       54      55
        55      1       55      56
        56      1       56      57
        57      1       57      58
        58      1       58      59
        59      1       59      60
        60      1       60      61
        61      1       61      62
        62      1       62      63
        63      1       63      64
        64      1       64      65
        65      1       65      66
        66      1       66      67
        67      1       67      68
        68      1       68      69
        69      1       69      70
        70      1       70      71
        71      1       71      72
        72      1       72      73
        73      1       73      74
        74      1       74      75
        75      1       75      76
        76      1       76      77
        77      1       77      78
        78      1       78      79
        79      1       79      80
        80      1       80      81
        81      1       81      82
        82      1       82      83
        83      1       83      84
        84      1       84      85
        85      1       85      86
        86      1       86      87
        87      1       87      88
        88      1       88      89
        89      1       89      90
        90      1       90      91
        91      1       91      92
        92      1       92      93
        93      1       93      94
        94      1       94      95
        95      1       95      96
        96      1       96      97
        97      1       97      98
        98      1       98      99
        99      1       99      100
        100     1       100     101
        101     1       101     102
        102     1       102     103
        103     1       103     104
        104     1       104     105
        105     1       105     106
        106     1       106     107
        107     1       107     108
        108     1       108     109
        109     1       109     110
        110     1       110     111
        111     1       111     112
        112     1       112     113
        113     1       113     114
        114     1       114     115
        115     1       115     116
        116     1       116     117
        117     1       117     118
        118     1       118     119
        119     1       119     120
        120     1       120     121
        121     1       121     122
        122     1       122     123
        123     1       123     124
        124     1       124     125
        125     1       125     126
        126     1       126     127
        127     1       127     128
        128     1       128     129
        129     1       129     130
        130     1       130     131
        131     1       131     132
        132     1       132     133
        133     1       133     134
        134     1       134     135
        135     1       135     136
        136     1       136     137
        137     1       137     138
        138     1       138     139
        139     1       139     140
        140     1       140     141
        141     1       141     142
        142     1       142     143
        143     1       143     144
        144     1       144     145
        145     1       145     146
        146     1       146     147
        147     1       147     148
        148     1       148     149
        149     1       149     150
        150     1       150     151
        151     1       151     152
        152     1       152     153
        153     1       153     154
        154     1       154     155
        155     1       155     156
        156     1       156     157
        157     1       157     158
        158     1       158     159
        159     1       159     160
        160     1       160     161
        161     1       161     162
        162     1       162     163
        163     1       163     164
        164     1       164     165
        165     1       165     166
        166     1       166     167
        167     1       167     168
        168     1       168     169
        169     1       169     170
        170     1       170     171
        171     1       171     172
        172     1       172     173
        173     1       173     174
        174     1       174     175
        175     1       175     176
        176     1       176     177
        177     1       177     178
        178     1       178     179
        179     1       179     180
        180     1       180     181
        181     1       181     182
        182     1       182     183
        183     1       183     184
        184     1       184     185
        185     1       185     186
        186     1       186     187
        187     1       187     188
        188     1       188     189
        189     1       189     190
        190     1       190     191
        191     1       191     192
        192     1       192     193
        193     1       193     194
        194     1       194     195
        195     1       195     196
        196     1       196     197
        197     1       197     198
        198     1       198     199
        199     1       199     200
        200     1       200     201
        201     1       201     202
        202     1       202     203
        203     1       203     204
        204     1       204     205
        205     1       205     206
        206     1       206     207
        207     1       207     208
        208     1       208     209
        209     1       209     210
        210     1       210     211
        211     1       211     212
        212     1       212     213
        213     1       213     214
        214     1       214     215
        215     1       215     216
        216     1       216     217
        217     1       217     218
        218     1       218     219
        219     1       219     220
        220     1       220     221
        221     1       221     222
        222     1       222     223
        223     1       223     224
        224     1       224     225
        225     1       225     226
        226     1       226     227
        227     1       227     228
        228     1       228     229
        229     1       229     230
        230     1       230     231
        231     1       231     232
        232     1       232     233
        233     1       233     234
        234     1       234     235
        235     1       235     236
        236     1       236     237
        237     1       237     238
        238     1       238     239
        239     1       239     240
        240     1       240     241
        241     1       241     242
        242     1       242     243
        243     1       243     244
        244     1       244     245
        245     1       245     246
        246     1       246     247
        247     1       247     248
        248     1       248     249
        249     1       249     250
        250     1       250     251
        251     1       251     252
        252     1       252     253
        253     1       253     254
        254     1       254     255
        255     1       255     256
        256     1       256     257
        257     1       257     258
        258     1       258     259
        259     1       259     260
        260     1       260     261
        261     1       261     262
        262     1       262     263
        263     1       263     264
        264     1       264     265
        265     1       265     266
        266     1       266     267
        267     1       267     268
        268     1       268     269
        269     1       269     270
        270     1       270     271
        271     1       271     272
        272     1       272     273
        273     1       273     274
        274     1       274     275
        275     1       275     276
        276     1       276     277
        277     1       277     278
        278     1       278     279
        279     1       279     280
        280     1       280     281
        281     1       281     282
        282     1       282     283
        283     1       283     284
        284     1       284     285
        285     1       285     286
        286     1       286     287
        287     1       287     288
        288     1       288     289
        289     1       289     290
        290     1       290     291
        291     1       291     292
        292     1       292     293
        293     1       293     294
        294     1       294     295
        295     1       295     296
        296     1       296     297
        297     1       297     298
        298     1       298     299
        299     1       299     300
        300     1       300     301
        301     1       301     302
        302     1       302     303
        303     1       303     304
        304     1       304     305
        305     1       305     306
        306     1       306     307
        307     1       307     308
        308     1       308     309
        309     1       309     310
        310     1       310     311
        311     1       311     312
        312     1       312     313
        313     1       313     314
        314     1       314     315
        315     1       315     316
        316     1       316     317
        317     1       317     318
        318     1       318     319
        319     1       319     320
        320     1       320     321
        321     1       321     322
        322     1       322     323
        323     1       323     324
        324     1       324     325
        325     1       325     326
        326     1       326     327
        327     1       327     328
        328     1       328     329
        329     1       329     330
        330     1       330     331
        331     1       331     332
        332     1       332     333
        333     1       333     334
        334     1       334     335
        335     1       335     336
        336     1       336     337
        337     1       337     338
        338     1       338     339
        339     1       339     340
        340     1       340     341
        341     1       341     342
        342     1       342     343
        343     1       343     344
        344     1       344     345
        345     1       345     346
        346     1       346     347
        347     1       347     348
        348     1       348     349
        349     1       349     350
        350     1       350     351
        351     1       351     352
        352     1       352     353
        353     1       353     354
        354     1       354     355
        355     1       355     356
        356     1       356     357
        357     1       357     358
        358     1       358     359
        359     1       359     360
        360     1       360     361
        361     1       361     362
        362     1       362     363
        363     1       363     364
        364     1       364     365
        365     1       365     366
        366     1       366     367
        367     1       367     368
        368     1       368     369
        369     1       369     370
        370     1       370     371
        371     1       371     372
        372     1       372     373
        373     1       373     374
        374     1       374     375
        375     1       375     376
        376     1       376     377
        377     1       377     378
        378     1       378     379
        379     1       379     380
        380     1       380     381
        381     1       381     382
        382     1       382     383
        383     1       383     384
        384     1       384     385
        385     1       385     386
        386     1       386     387
        387     1       387     388
        388     1       388     389
        389     1       389     390
        390     1       390     391
        391     1       391     392
        392     1       392     393
        393     1       393     394